
144 atoms
1 atom types
0 16.46459180 xlo xhi
0 16.46459180 ylo yhi
0 11.80982525 zlo zhi
0.00000000 0.00000000 0.00000000 xy xz yz

Atoms # atomic

1 1 16.42211057 0.03611357 11.70127260
2 1 16.38871057 0.04863357 2.99305260
3 1 16.49691057 0.08817757 5.82785260
4 1 0.13182557 0.11271357 8.81130260
5 1 0.10383857 5.48691057 11.70717260
6 1 16.46231057 5.52581057 2.82338260
7 1 0.11612057 5.54765057 5.91608260
8 1 16.31921057 5.65051057 8.91853260
9 1 16.44461057 10.98051057 0.15110660
10 1 0.09905357 10.98291057 3.00539260
11 1 0.15930157 11.02131057 5.98270260
12 1 16.43081057 11.16481057 8.96937260
13 1 5.47845057 16.28041057 11.66807260
14 1 5.52764057 16.50661057 2.87850260
15 1 5.62534057 0.08259557 5.89156260
16 1 5.55378057 16.43391057 8.76525260
17 1 5.42945057 5.36646057 11.77147260
18 1 5.59825057 5.47119057 2.92019260
19 1 5.59647057 5.57445057 5.88861260
20 1 5.45756057 5.58993057 8.80784260
21 1 5.42042057 10.84171057 0.06853260
22 1 5.58997057 11.05421057 2.98088260
23 1 5.44341057 10.99171057 5.74152260
24 1 5.47588057 10.93281057 8.85057260
25 1 11.01181057 16.32661057 0.03367660
26 1 11.08991057 16.32111057 3.02756260
27 1 11.05301057 0.05333757 5.81983260
28 1 11.13681057 0.09934957 8.85292260
29 1 11.00181057 5.45893057 0.05731260
30 1 10.92401057 5.37807057 2.87491260
31 1 10.97421057 5.55505057 6.01077260
32 1 10.89751057 5.74849057 8.79611260
33 1 11.00941057 10.80861057 11.72027260
34 1 11.10601057 10.93301057 2.79329260
35 1 11.16051057 10.98781057 5.85973260
36 1 10.88241057 11.15601057 8.77609260
37 1 2.96081057 2.74088057 1.42988260
38 1 2.73227057 2.69449057 4.35918260
39 1 2.58097057 2.84871057 7.12927260
40 1 2.74733057 2.94865057 10.26087260
41 1 2.76598057 8.30874057 1.40806260
42 1 2.79627057 8.23616057 4.50237260
43 1 2.67081057 8.17511057 7.47167260
44 1 2.90901057 8.45671057 10.29897260
45 1 2.99915057 13.90871057 1.35873260
46 1 2.68761057 13.86961057 4.41795260
47 1 2.80670057 13.62861057 7.28599260
48 1 2.76267057 13.97221057 10.23747260
49 1 8.26717057 2.82729057 1.68700260
50 1 8.43318057 2.66101057 4.53472260
51 1 8.18266057 2.69432057 7.37254260
52 1 8.20525057 2.72692057 10.44347260
53 1 8.25077057 8.42734057 1.61365260
54 1 8.19056057 8.27672057 4.43274260
55 1 8.10567057 8.22090057 7.51682260
56 1 8.38819057 8.33639057 10.48197260
57 1 8.56864057 13.85111057 1.40067260
58 1 8.25788057 13.75751057 4.27857260
59 1 8.19107057 13.65531057 7.36198260
60 1 8.18402057 13.75301057 10.32687260
61 1 13.75411057 2.74229057 1.53563260
62 1 13.81301057 2.82046057 4.44346260
63 1 13.60571057 2.52374057 7.35237260
64 1 13.83181057 2.72781057 10.42897260
65 1 13.82671057 8.19332057 1.48148260
66 1 13.80061057 8.26399057 4.46908260
67 1 13.56421057 8.00192057 7.38458260
68 1 13.81481057 8.25141057 10.22627260
69 1 13.94141057 13.78691057 1.59326260
70 1 13.91661057 13.75321057 4.34196260
71 1 13.75401057 13.68581057 7.42258260
72 1 13.56961057 13.69881057 10.29537260
73 1 2.65985057 0.19069457 2.28287260
74 1 2.82572057 0.13072957 5.19253260
75 1 2.82881057 16.39871057 8.05781260
76 1 2.75983057 0.15299857 11.13707260
77 1 2.70422057 5.61233057 2.10576260
78 1 2.77490057 5.51410057 5.07418260
79 1 2.61439057 5.40296057 8.14965260
80 1 2.77284057 5.62396057 11.01047260
81 1 2.71920057 10.96811057 2.24917260
82 1 2.70338057 11.10531057 4.98954260
83 1 2.72796057 10.91411057 8.06863260
84 1 2.63118057 11.23901057 11.18017260
85 1 8.25247057 16.48611057 2.06110260
86 1 8.29047057 16.39891057 5.00982260
87 1 8.41558057 16.53801057 8.19525260
88 1 8.33531057 0.02162357 10.98797260
89 1 8.27443057 5.62867057 2.17157260
90 1 8.37939057 5.53723057 5.25740260
91 1 8.16579057 5.44623057 8.17797260
92 1 8.24699057 5.59434057 11.03707260
93 1 8.25259057 11.14281057 2.30747260
94 1 8.23992057 11.02181057 5.21960260
95 1 8.11350057 10.97511057 8.06619260
96 1 8.22934057 11.01531057 11.10497260
97 1 13.78871057 0.09803557 2.01799260
98 1 13.72811057 16.45071057 5.07180260
99 1 13.89591057 16.42521057 8.11491260
100 1 13.71361057 16.42881057 10.89887260
101 1 13.81921057 5.49998057 2.25646260
102 1 13.92411057 5.50809057 5.15062260
103 1 13.66551057 5.29854057 8.10789260
104 1 13.72321057 5.46714057 11.18277260
105 1 13.82281057 11.12661057 2.11256260
106 1 13.94521057 11.01681057 5.20435260
107 1 13.71441057 10.88311057 7.98903260
108 1 13.65011057 11.08411057 10.86347260
109 1 0.00772457 2.76657057 0.93062260
110 1 0.07906457 2.77193057 3.86026260
111 1 16.34001057 2.79939057 6.80949260
112 1 16.51641057 2.94336057 9.98347260
113 1 0.00914557 8.21697057 0.76637260
114 1 0.03493657 8.26590057 3.66928260
115 1 16.32271057 8.29062057 6.63748260
116 1 0.24738157 8.40606057 9.54157260
117 1 0.19736757 13.88651057 0.62834260
118 1 16.48411057 13.83221057 3.70343260
119 1 16.45051057 13.77431057 6.71164260
120 1 0.01870257 13.92251057 9.60477260
121 1 5.59036057 2.49430057 0.76582260
122 1 5.71568057 2.68391057 3.69204260
123 1 5.38338057 2.90717057 6.65945260
124 1 5.47094057 2.75942057 9.61657260
125 1 5.50766057 8.01186057 0.80222260
126 1 5.45814057 8.40136057 3.67577260
127 1 5.40140057 8.27676057 6.64105260
128 1 5.57543057 8.25430057 9.72717260
129 1 5.73280057 13.71411057 0.76243260
130 1 5.41791057 13.85251057 3.62791260
131 1 5.50493057 13.79261057 6.60938260
132 1 5.40146057 13.68361057 9.64627260
133 1 11.08821057 2.75633057 0.78628260
134 1 10.99821057 2.58618057 3.57487260
135 1 10.90871057 2.78827057 6.51447260
136 1 10.90661057 2.85662057 9.46077260
137 1 11.03431057 8.12536057 0.81255260
138 1 10.95971057 8.05893057 3.80599260
139 1 10.78541057 8.17939057 6.57325260
140 1 11.10261057 8.36150057 9.52297260
141 1 11.20711057 13.57451057 0.74407260
142 1 11.13931057 13.68971057 3.81479260
143 1 10.84461057 13.84351057 6.67676260
144 1 10.80781057 13.91631057 9.54647260
