LAMMPS data file via write_data, version 29 Oct 2020, timestep = 200000

768 atoms
512 bonds
256 angles
2 atom types
1 bond types
1 angle types

0.0 19.77396455 xlo xhi
0.0 19.77396455 ylo yhi
0.0 19.77396455 zlo zhi
0.0 0.0 0.0 xy xz yz

Masses

1 16
2 2

Atoms # atomic

1 1 1 9.596610131690824 5.738051646250822 9.797150500720587 0 0 0
2 2 1 17.527624774647755 18.093392698918677 2.86042892507947 -1 0 0
3 3 1 17.44517973579182 18.07663059352295 19.37184392791148 0 0 0
4 4 1 15.351135861465812 7.458135022674997 17.09561213921319 0 0 -1
5 5 1 11.002487669059288 10.124253292323706 16.847578524339337 0 0 -1
6 6 1 3.231163823937494 5.703124676553281 11.925733859101435 0 0 0
7 7 1 12.700205517868858 15.49247384261657 8.34402339132488 0 0 0
8 8 1 7.292492890513973 5.140722925172874 1.0407085800724778 0 0 1
9 9 1 4.03542983210487 7.259974954197968 6.7865857284807225 0 0 0
10 10 1 15.730472275031158 1.9725317526134825 0.4567445328590033 0 1 0
11 11 1 13.49140065283578 9.008739277522531 3.0571767681531243 0 0 0
12 12 1 15.73413818313244 16.170806183993687 5.151246945744809 0 0 0
13 13 1 19.430607688953163 3.6537079569408006 14.33854004908962 -1 0 0
14 14 1 11.455851257368879 16.262271857758474 13.911820651992617 0 0 0
15 15 1 10.266811445512126 3.2399525521783614 8.710200572001861 0 1 0
16 16 1 18.570821264651368 3.2195040774997237 2.492062037898119 -1 1 0
17 17 1 4.929463055966756 4.221891662766494 5.399223666030513 0 0 0
18 18 1 0.7499606439227324 9.266219380315075 2.351723168942537 1 0 0
19 19 1 0.9710718383921683 10.674226040357711 4.498559414516644 0 0 0
20 20 1 14.733048982509837 0.628400520325106 18.109633560407886 0 0 0
21 21 1 12.876672757264057 17.325816750120588 16.167327754865426 0 0 0
22 22 1 3.615561187813161 17.344164328195514 12.25728276176973 1 -1 0
23 23 1 10.388714956208531 11.074851871388478 4.148767381570107 0 0 0
24 24 1 19.668867763931996 12.614819563525463 11.22656542498254 -1 0 0
25 25 1 17.945760345926374 10.104974987403818 0.6559381043584087 0 0 0
26 26 1 14.557353339128705 12.705561326846572 10.748925245361272 0 0 0
27 27 1 11.608975032225304 7.579227945692103 12.851510197609318 0 0 0
28 28 1 7.537737409023149 13.713281010536166 16.564640637351424 0 0 0
29 29 1 8.59747393963708 12.05894259855986 11.9155809969351 0 0 0
30 30 1 17.447453392896342 0.013303999731587836 14.490260690816646 0 0 0
31 31 1 5.764003101079841 13.935119007840752 19.163516965221174 0 0 -1
32 32 1 15.043025348508543 16.17855444038006 0.538122140033785 0 0 0
33 33 1 0.7801144135685947 3.5953817313381973 19.711877165598022 1 0 -1
34 34 1 18.727588102467223 11.717628839301486 8.605886805846595 -1 0 0
35 35 1 11.288432462621444 12.206606924271124 10.486342100402213 0 0 0
36 36 1 10.995008443998511 13.965168621002 0.07966060853273972 0 0 1
37 37 1 8.497330672166859 3.1775718115334888 4.1637845751861615 0 0 0
38 38 1 8.047109842270425 17.969547462187087 12.454104090952576 0 -1 0
39 39 1 1.8654149285628279 12.815339729189022 18.23829314667622 0 0 0
40 40 1 2.711066781421836 15.270170966293884 7.9590623976526285 0 0 0
41 41 1 5.716920061190074 14.817443912937506 9.639946945941892 0 0 0
42 42 1 15.881937395412523 13.017027939082306 3.4918475877615784 -1 0 0
43 43 1 3.042349250503015 6.89652157807619 18.643199622290087 0 0 -1
44 44 1 13.677802815951184 7.811152224023056 7.738317796967923 0 0 0
45 45 1 9.402467143042404 6.68791376417428 7.122959439736815 0 0 0
46 46 1 3.106240054296228 15.129042611846101 18.524095221806657 0 0 0
47 47 1 17.857387191950508 11.451427290872346 2.9345531217783676 0 0 0
48 48 1 11.178359945663516 13.498510504053796 14.4807286813313 0 0 0
49 49 1 15.981131926631692 0.928281394432841 7.214483825065213 0 1 0
50 50 1 17.08902290513573 3.863751988285862 12.897758178092392 0 0 0
51 51 1 5.07269885370713 15.84878411321968 2.9064296980745907 0 0 1
52 52 1 19.36636889141294 12.873261727961557 4.4638106045057375 0 0 0
53 53 1 2.9843370105619456 11.365663406402085 16.250619033352603 0 0 0
54 54 1 16.621385422059372 5.490545022926347 4.969620442872655 0 0 0
55 55 1 1.7585882369242305 9.539508290565207 12.835178639997011 0 0 0
56 56 1 17.51320901818289 15.217259419984899 9.726403160068596 0 0 0
57 57 1 8.708563189725304 0.6859165407689967 11.047188547705288 0 0 0
58 58 1 19.10190171223547 12.115142044655864 17.22398054538297 -1 0 0
59 59 1 6.4118025323484 17.917919802640498 16.938922205726662 0 0 0
60 60 1 17.92523939082993 14.15421122461431 18.362232809888827 -1 0 0
61 61 1 11.55462651493413 12.837451802883399 17.129787158157647 0 0 0
62 62 1 16.22123599792757 7.725550763139606 8.729611335083638 0 0 0
63 63 1 7.150041621642486 5.27485438343572 6.650263123497603 0 0 0
64 64 1 18.94806932834539 9.500489446824034 17.9646819514621 0 0 0
65 65 1 8.20083395939956 2.64577061244549 6.859180442958291 0 0 0
66 66 1 16.054178865714945 4.414314071583756 15.798139922480768 0 0 0
67 67 1 15.83140999422646 8.378731371902163 1.2698593927557864 0 0 0
68 68 1 12.491218303957336 1.8372637373802931 3.0176957702190297 0 1 0
69 69 1 16.478681192088516 10.335270962068485 7.554965063470381 0 0 0
70 70 1 5.6052315928934116 7.245738763522254 19.566280481601318 0 0 0
71 71 1 1.3158036985663757 3.6196869426475744 7.734421722592224 1 0 0
72 72 1 9.555580347895773 12.812680128238622 2.2732124437286667 0 0 0
73 73 1 12.029079488771137 5.552866590716774 18.17275450905888 0 0 0
74 74 1 6.625461143492927 0.692872856590889 16.21099656235982 0 0 0
75 75 1 14.203631894559102 9.11060014570017 18.805874118511166 0 0 0
76 76 1 2.8346946406342126 0.6197000200791007 3.1229056039125127 0 0 0
77 77 1 14.528849426325747 19.62814984887226 11.791657195132865 0 -1 0
78 78 1 9.065649070643998 16.87160714795729 10.1891448838818 0 0 0
79 79 1 1.640284482990047 13.728376814863566 3.282017283401035 1 0 0
80 80 1 5.669533565419095 14.35788250629007 14.694141662109681 0 0 0
81 81 1 13.479029771353975 0.7729389481340899 14.23913432264436 0 0 0
82 82 1 12.082248712864537 4.183241668266751 1.7314365870675332 0 0 1
83 83 1 15.692684720356013 8.481132102269168 11.295728791367694 0 0 0
84 84 1 9.579244123279974 18.03365453146554 14.825970890229332 0 0 0
85 85 1 12.81509239653947 10.824790813516383 6.734276203906202 0 0 0
86 86 1 5.462408363963739 18.383427023015575 2.067207932030783 0 0 0
87 87 1 3.4092078000393107 13.091810443100439 13.878697879088989 0 0 0
88 88 1 10.53987292734539 13.66667192321194 8.19387144439768 0 0 0
89 89 1 6.100609774939796 6.22353294830406 16.835282511210853 0 0 0
90 90 1 9.279152113378272 11.901830222403168 6.377849435675324 0 0 0
91 91 1 6.977273380444313 0.12099400296438022 3.60370562422717 0 1 0
92 92 1 12.045066621584658 2.6396356492741173 13.078823454715176 0 0 0
93 93 1 16.64644830294888 11.14043278730097 11.160433289853719 0 0 0
94 94 1 7.7142514829330535 19.543445869017273 7.733776524272587 0 -1 0
95 95 1 2.5324387644144313 0.5443075821882117 9.183198157438497 1 0 0
96 96 1 9.481882582470869 16.762790636443214 3.611171156911765 0 0 0
97 97 1 15.688578602439401 1.9987761142149896 14.332399938201464 0 1 0
98 98 1 0.05359755970172023 1.2782532222717025 8.423458258848965 1 0 0
99 99 1 8.680790770325084 16.20654435308136 17.0427557776268 0 0 0
100 100 1 1.927641757204563 18.49220315457476 1.361509231466678 0 0 0
101 101 1 13.040767600139581 14.650143255737806 1.595276419707132 0 0 0
102 102 1 7.070117395446024 13.34645735689312 6.537856641743892 0 0 0
103 103 1 5.474850958438994 2.172665708771354 3.2261823303723056 0 0 0
104 104 1 8.495807676276126 9.981859047893229 15.578214568769821 0 0 -1
105 105 1 18.375833738673183 11.065956434430673 13.19672252531067 -1 0 0
106 106 1 1.8539905494351223 3.3403717626752427 2.2725728254395445 0 0 0
107 107 1 4.071288383774418 4.158764028811658 16.034179132440435 0 0 0
108 108 1 18.867940555300265 5.543341892410287 0.3330296319970712 0 0 1
109 109 1 14.677286206349772 0.012290970596245005 3.1046631363319563 0 1 0
110 110 1 3.192766510535628 4.2353537846527605 18.818048375190045 0 0 -1
111 111 1 17.048034921777024 9.632591658181719 4.707742090537767 0 0 0
112 112 1 12.564604329529944 8.868966101312845 15.279867600823982 0 0 0
113 113 1 4.807215176658495 2.2381101325167516 9.432343560199376 0 0 0
114 114 1 10.52200599062863 1.9553645118862266 16.901532147293526 0 1 0
115 115 1 16.443750998229905 3.67204010280618 10.235196277401673 0 0 0
116 116 1 0.35393363173705883 1.0993576827496427 14.924215795583082 0 0 0
117 117 1 10.760699964827554 4.630487094546589 15.963631901699467 0 0 0
118 118 1 13.22414417845866 4.360792371585601 6.609850765215541 0 0 0
119 119 1 4.44969556398443 17.577541805024516 9.561654401553135 0 0 0
120 120 1 9.85622350202747 4.316929989689754 0.07737913223869129 0 0 1
121 121 1 3.820102028514968 19.448985542183912 6.491309503084147 0 -1 0
122 122 1 3.733387522395157 13.107316599699024 9.140687099125682 0 0 0
123 123 1 11.704716530060354 17.337306031146127 9.980959938476998 0 -1 0
124 124 1 16.361468964629843 1.972475008311147 3.1830253216446907 0 1 0
125 125 1 14.869639129128993 7.867694943002351 5.318294188381128 0 0 0
126 126 1 14.547482329819175 4.341032760440846 0.8624024635762686 0 0 1
127 127 1 8.7272362886671 9.547877682050524 7.228224363912395 0 0 0
128 128 1 8.208392863245008 9.366638808308712 11.999381103170776 0 0 0
129 129 1 13.562410798063802 0.027686893825361967 6.089506587923822 0 1 1
130 130 1 14.669490722684737 4.914537476016108 17.87596273035266 0 0 0
131 131 1 10.360497893938378 0.41106184378174815 1.699269288530685 0 0 0
132 132 1 15.937640214353513 13.659693475691652 6.245638644400737 0 0 0
133 133 1 11.380587626121748 2.735751193688742 5.592354732443123 0 1 0
134 134 1 15.143664677025907 12.15862000654474 15.4072495393354 -1 0 0
135 135 1 13.566130508406792 11.428283500739058 4.34495393773094 0 0 0
136 136 1 5.912935537157496 9.08008811304902 8.009899521765135 0 0 0
137 137 1 0.5275222851866045 2.381844308607487 4.6348768448877395 1 0 0
138 138 1 11.564302092350054 17.859679935210714 0.7961797879062815 0 0 0
139 139 1 17.390435777554913 6.645895304671152 11.991188773926785 -1 0 0
140 140 1 13.109534765352448 10.509660603698146 11.939121210466334 0 0 0
141 141 1 0.47200738525816444 16.592657881994974 4.147627673863289 0 0 0
142 142 1 0.8722688666049249 7.746004209345359 0.10161164781076855 1 0 0
143 143 1 6.29783926404773 0.0040551277899141275 10.096254683393429 0 0 0
144 144 1 9.834001031909166 17.152037524114828 7.578735632221864 0 0 0
145 145 1 5.099559154225388 4.960484154719472 8.527147890244 0 0 0
146 146 1 8.71283146485693 12.476508827313005 14.613401426183865 0 0 0
147 147 1 2.6252446332233825 15.716370525023171 1.3503174367753794 0 0 1
148 148 1 6.117249760745997 8.613648771658626 10.622626505145186 0 0 0
149 149 1 19.338192832497256 17.998945373548445 10.948431552980011 0 -1 0
150 150 1 1.0122084185810032 7.041873203620792 4.558592427839154 1 0 0
151 151 1 8.583883321733568 10.06296164740431 1.7325037046901746 0 0 0
152 152 1 9.12990018461079 0.8073279975153633 14.976275719990149 0 1 0
153 153 1 12.648705838460641 0.20913128366988923 16.58888628887143 0 1 0
154 154 1 10.836849788063736 0.1310383331985648 9.24119569065292 0 0 0
155 155 1 19.370459072660392 5.349802508105652 10.735360527268831 0 0 0
156 156 1 18.010441537136288 17.407920678433893 8.346712774457497 0 -1 0
157 157 1 10.671970440452828 6.170091980772722 3.2377293273115075 0 0 0
158 158 1 18.471157810465822 13.50611940123707 6.756383870818914 0 0 0
159 159 1 13.24699515804063 16.41879297913831 6.0560537078404755 0 -1 0
160 160 1 1.4318216941898563 8.791039078015563 6.5374534121291985 0 0 0
161 161 1 17.478871789268876 17.124556333770904 15.039209880826347 -1 0 0
162 162 1 11.705668026197184 7.615063222803625 9.827159129562666 0 0 0
163 163 1 16.794217962556143 15.469865509494674 2.4243595312752517 0 0 1
164 164 1 14.066034401369759 6.185677058332138 11.174864503187584 0 0 0
165 165 1 10.02316987802437 9.696404568919279 9.757444432453031 0 0 0
166 166 1 17.260918358069496 15.014230841277111 13.431104095074813 0 0 0
167 167 1 2.3362153274805815 17.450298615138397 15.307656998929026 0 0 0
168 168 1 6.493234073650444 18.28840212615425 5.707684427013315 0 0 0
169 169 1 17.352988824479397 19.440976103086623 11.902445608500102 0 -1 0
170 170 1 1.7490880065627359 18.81989057286708 5.04108933411974 1 0 0
171 171 1 14.119944025580306 18.66462957478728 0.46423189290802097 0 0 0
172 172 1 11.014466251069681 16.368641674422538 18.3776295129312 0 0 0
173 173 1 14.470407172934976 12.021417528507804 1.1223890222661086 0 0 0
174 174 1 12.888538905001429 1.671030991634944 10.770470213652926 0 0 0
175 175 1 14.936760181882805 9.550485235499744 14.685175536540804 0 0 0
176 176 1 6.593885298016479 7.715482674548588 4.738544685418179 0 0 0
177 177 1 17.810820292622594 5.372389258125501 8.474519787962445 0 0 0
178 178 1 14.023736634196023 11.858705574455179 17.700974123521057 0 0 -1
179 179 1 16.792399950124874 18.460362578692948 6.194815213354453 0 0 1
180 180 1 18.519535713404675 4.87773366984522 16.607539120446084 0 0 0
181 181 1 1.447062588286416 0.29383114381357284 11.551976005445027 0 0 0
182 182 1 11.722661920740473 6.619882368818017 5.912755085152311 0 0 0
183 183 1 4.464965650558812 14.65051882394999 5.597494623820613 0 0 0
184 184 1 0.35403305848173133 8.978226200232518 8.724916209966674 0 0 0
185 185 1 4.8271561979536735 7.375977506039463 2.833594708962764 0 0 0
186 186 1 5.005849186433305 11.362936104727227 7.2523245529219675 0 0 0
187 187 1 17.45327860373237 8.41497728201111 14.038270400560949 0 0 0
188 188 1 2.644229073269011 5.190934386744872 9.359242415991773 0 0 0
189 189 1 2.836319532777699 2.468995483433322 5.946179943505946 0 0 0
190 190 1 18.75981588910668 16.589027451760245 17.341398579060108 0 0 0
191 191 1 15.238603677958766 14.564294316404363 18.112798578370736 0 0 0
192 192 1 17.599784016127916 12.844611258943091 14.966875684745174 0 0 0
193 193 1 9.353508204974025 2.5566729695444907 12.78135937717579 0 0 0
194 194 1 6.1071535567741275 16.134497240806272 12.598378181223483 0 0 0
195 195 1 4.937229966952014 3.662128096337788 12.200439959630796 0 0 0
196 196 1 4.924486321340274 8.110254524468983 15.4549042893572 0 0 0
197 197 1 16.49795039758852 5.806340835249003 1.9824673451372745 0 0 1
198 198 1 5.778421396563169 10.367055508969978 16.702059230417657 0 0 0
199 199 1 13.88763238728484 3.826440162089459 9.35134844781186 0 0 0
200 200 1 8.042096625247366 5.627927361227948 3.635612682229065 0 0 0
201 201 1 2.0644507026480774 15.332724621406381 13.31349933202318 0 0 0
202 202 1 11.799978472563183 8.03603266388437 19.11642272143702 0 0 0
203 203 1 15.328088566409841 15.004637012446253 11.67129866161178 0 0 0
204 204 1 2.2203500550360986 11.648320282783668 1.016560063428941 0 0 0
205 205 1 5.763603467955015 11.908044911489178 3.4531954354212817 0 0 1
206 206 1 19.554626751855693 15.060907914764657 12.07442437622968 0 0 0
207 207 1 12.4377781436255 5.113458103636309 13.824024149228222 0 0 0
208 208 1 18.582960716325776 13.797556608997354 1.2445973110563966 0 0 0
209 209 1 2.3553174556015892 7.367397343637759 16.1132389772725 0 0 0
210 210 1 1.4691859997353793 18.10673842024342 18.10131055031511 0 0 -1
211 211 1 14.964734752323583 6.128218097039092 13.873281894503634 0 0 0
212 212 1 8.246855630102267 5.465440764691112 15.201577652831316 0 0 -1
213 213 1 9.261589224961938 1.3956025242407675 19.247517772829106 0 1 -1
214 214 1 6.982402662763242 6.019417163309474 10.345463228847054 0 0 0
215 215 1 9.635339703175344 19.454288717241525 4.205324482992163 0 0 0
216 216 1 8.379553661110105 14.217626061554892 9.619984309412231 0 -1 0
217 217 1 17.504990148772276 0.3706205294030549 17.66994388213726 0 1 0
218 218 1 8.94275742916784 7.959989134303282 14.132346790512571 0 0 0
219 219 1 19.246423989261405 0.1551687900316072 5.880599642781862 0 0 0
220 220 1 2.989280260291969 1.0694750296653337 19.47400867468024 0 0 -1
221 221 1 13.438637332690782 17.037542850029908 11.853484797492346 0 0 0
222 222 1 13.927654862223743 12.837228373536027 8.155457431531083 0 0 0
223 223 1 17.863450390822326 3.0867631590547924 18.64257534629614 0 0 0
224 224 1 1.9958295024222088 4.886487194065674 14.303143368517771 0 0 0
225 225 1 7.422930715325673 10.134016624048481 4.276389305502452 0 0 0
226 226 1 19.46534212821859 4.972860037790386 5.8349256710190724 0 0 0
227 227 1 0.8330207549601509 0.8193244274875076 17.572276293688862 0 1 0
228 228 1 7.487454711927279 4.585131374868779 12.518707927253631 0 0 0
229 229 1 3.0510547028047137 5.3954721605507725 3.827565187739581 0 0 0
230 230 1 4.618162592445108 8.058211362616818 12.676759834435309 0 0 0
231 231 1 19.579974325263677 2.610261993200556 11.233064157556553 -1 0 0
232 232 1 10.91446036607095 8.545090104484421 1.929977920202726 0 0 0
233 233 1 0.31993180050153486 15.751956099519171 6.950455146613315 0 0 0
234 234 1 17.31875458434467 1.3237802281146314 9.660259852006782 0 0 0
235 235 1 4.945098649872836 19.032512046608268 19.16901449771351 0 -1 0
236 236 1 7.996527960782733 16.01575150212316 6.121205711428373 0 0 0
237 237 1 14.998647289853785 15.729977483521088 15.840703793686805 0 0 0
238 238 1 6.6163363029988105 1.2984360130445713 19.018723905871838 0 0 -1
239 239 1 4.440447974364383 15.980990286818365 16.500672189924252 0 0 0
240 240 1 1.1306089408852549 9.618659376374358 15.594289271913578 1 0 0
241 241 1 5.284586875451778 3.4281921513683984 0.4733198713894512 0 0 0
242 242 1 5.024277825854323 11.652582410876674 0.9188122652383701 0 0 1
243 243 1 13.802542729228263 13.99591722462242 13.818153811678409 0 -1 0
244 244 1 2.43735062520618 11.83879981232037 11.542801706255451 0 0 0
245 245 1 17.91340339577363 7.476127673221632 16.55284193121399 0 0 0
246 246 1 3.4863161723144755 11.929666531686328 4.805687489449625 0 0 0
247 247 1 12.076597228787955 16.53789273755006 3.6357894488426985 0 -1 0
248 248 1 2.732701461952086 19.58365356266966 13.646852926415248 0 -1 0
249 249 1 15.474376474949947 3.163580644446335 5.590357566883458 0 0 0
250 250 1 10.97969092005588 0.1392090472878203 6.508166076238056 0 0 0
251 251 1 7.0105823632544935 16.373585084161135 0.4183229467843691 0 0 1
252 252 1 6.530519373385997 9.715055293280592 19.567828733324045 0 0 -1
253 253 1 18.85520045212136 0.47933197901092045 2.035662096386883 0 1 0
254 254 1 7.253019665801262 14.090402054214533 3.343345307554634 0 0 0
255 255 1 4.685233648800789 1.8372706216812074 14.690247171390025 0 0 0
256 256 1 1.0272223288454512 7.670099750787886 11.27671401196545 1 0 0
257 1 2 9.909573085469349 4.87065053691715 9.458634706555372 0 0 0
258 2 2 16.90526356934402 18.01833791035779 3.6196091129427974 -1 0 0
259 3 2 17.476142181222937 18.858050854535836 18.80548559845189 0 0 0
260 4 2 16.347848580765685 7.458935031260425 16.847778336324147 0 0 0
261 5 2 11.621585680909984 9.760642457290919 16.16553508308023 0 0 -1
262 6 2 3.8067294891112238 4.938947618847791 12.01439157163213 0 0 0
263 7 2 12.755399176490828 15.864833324267543 7.385265523077374 0 0 0
264 8 2 8.252867451187356 4.805563883988635 0.863695632923706 0 0 1
265 1 2 10.367610595302652 6.265227964222113 10.044253589796643 0 0 0
266 2 2 17.498387570920524 17.1339297743441 2.574378334596444 -1 0 0
267 3 2 17.638922884308386 18.42545019739804 20.225161178921535 0 0 1
268 4 2 14.809687587293793 7.6297992903605 16.320087137786462 0 0 -1
269 5 2 10.97922509197303 9.441411185397245 17.52641119385426 0 0 -1
270 6 2 3.7790569683097033 6.567080686012468 11.99098482152593 0 0 0
271 7 2 12.299054277193202 16.165822363875222 8.887558833288814 0 0 0
272 8 2 7.409842250841923 5.508379428877587 1.9331030566235872 0 0 1
273 9 2 4.721356135434124 7.883449137061239 7.173307098765824 0 0 0
274 10 2 15.174592565869885 2.6405457256888925 0.9359389188249011 0 1 0
275 11 2 14.202742851988425 8.930104596826924 2.375986596653282 0 0 0
276 12 2 16.09024530149867 16.98114102320967 5.609020799315825 0 0 0
277 13 2 20.217511746193626 4.1739272800150005 14.174097616271748 0 0 0
278 14 2 11.251875391725564 15.322689067170987 13.969247273786449 0 0 0
279 15 2 10.310314254557502 2.5284718213198385 9.357082873282156 0 1 0
280 16 2 18.721766584613007 4.051005512620368 2.001972076697416 -1 1 0
281 9 2 4.254165117621832 6.320837191994217 7.155847348515079 0 0 0
282 10 2 16.154671431073535 1.4713152085275862 1.168191610316001 0 1 0
283 11 2 13.511031221741154 9.916213875235862 3.4076170247505595 0 0 0
284 12 2 15.89654686935213 16.214186574124987 4.166345172910464 0 0 0
285 13 2 19.793300182332157 2.739837912239345 14.584989756709081 0 0 0
286 14 2 10.702405022170359 16.84338710833773 14.285827715874815 0 0 0
287 15 2 9.540722849884341 2.9982652102881953 8.080050006037443 0 1 0
288 16 2 18.99962949648252 2.478853592462872 2.0247388888641864 -1 1 0
289 17 2 5.793218728931526 4.635627926086088 5.542252418326042 0 0 0
290 18 2 0.02392829833876094 9.588637124585091 1.7957329887773754 1 0 0
291 19 2 0.542018479483056 11.513585972787414 4.5844631143086225 0 0 0
292 20 2 15.222239785341978 1.2505032334681103 18.692090572832974 0 0 0
293 21 2 12.671053539506724 18.239396836706128 16.427359251865383 0 0 0
294 22 2 3.697595548914059 18.045515444323748 12.856978802564857 1 -1 0
295 23 2 11.345662384454524 11.143969596801355 4.370834150672937 0 0 0
296 24 2 19.056863706653992 12.062670243585597 11.789066392737107 -1 0 0
297 17 2 4.63016911544576 3.817771909126769 6.229903976197808 0 0 0
298 18 2 0.7904903700827053 9.906551998804039 3.2156237538901045 1 0 0
299 19 2 0.8889409718859773 10.210976039991403 5.302075828747013 0 0 0
300 20 2 15.43107812733856 0.5983382406685285 17.441768511448988 0 0 0
301 21 2 12.404905776570919 17.128182557367754 15.308989079847848 0 0 0
302 22 2 2.913834889020403 16.763455364053836 12.599358496797667 1 -1 0
303 23 2 10.229703181207114 11.743529107457126 3.4051278364672695 0 0 0
304 24 2 19.607697132367782 13.460037826074721 11.700496913355023 0 0 0
305 25 2 17.19316155635973 9.427685101404425 0.7849876598130272 0 0 0
306 26 2 13.687586769312817 12.242700561134255 10.922425536496124 0 0 0
307 27 2 10.741364867665583 7.707271001573428 13.244179252668824 0 0 0
308 28 2 6.973525712468024 13.147334820840129 17.16681670881551 0 0 0
309 29 2 8.354333082187301 11.046453357092748 11.898752802542605 0 0 0
310 30 2 16.837659734562543 0.8049252511818961 14.661513705665797 0 0 0
311 31 2 6.407660835842923 14.503517198278738 19.509334102557656 0 0 -1
312 32 2 15.192339818072707 17.089695904000344 0.2264078074391686 0 0 0
313 25 2 17.87709943873448 10.579449306809437 1.5167230704857064 0 0 0
314 26 2 14.638120027055459 12.807782838415955 9.736330810250879 0 0 0
315 27 2 11.856971757036543 6.660788260234287 13.067327054269331 0 0 0
316 28 2 6.826101000824592 14.012975357814286 15.942229974605663 0 0 0
317 29 2 8.417172202825645 12.37210269371778 12.79628582811104 0 0 0
318 30 2 18.304046903293468 0.31956132103371765 14.687349095447816 0 0 0
319 31 2 5.0772517824426044 14.411260744787807 18.754892031894627 0 0 -1
320 32 2 15.073934049705699 15.588339096229793 -0.26087452640268793 0 0 -1
321 33 2 1.1846141061477968 3.413667031996155 20.622613168153205 1 0 0
322 34 2 18.760688135831288 11.988370014800761 9.57217179786029 -1 0 0
323 35 2 10.969138870446608 12.63993232308073 9.694322064268038 0 0 0
324 36 2 11.848998057710208 14.23545331010428 0.5897258400923971 0 0 1
325 37 2 8.357196312135649 4.124714159901196 4.018030858298333 0 0 0
326 38 2 7.156227118742756 17.78854946109533 12.64782328872067 0 -1 0
327 39 2 2.403560614331797 12.41295585078297 17.55068895901996 0 0 0
328 40 2 1.8361818949565276 15.480383670807022 7.633239777952822 0 0 0
329 33 2 0.37230140025763214 4.477362106093379 19.76385423989003 1 0 -1
330 34 2 17.889745900702167 11.31777403112961 8.425153064341336 -1 0 0
331 35 2 10.469913536633829 12.25459091562877 11.005473411817768 0 0 0
332 36 2 10.622020772760166 14.81270796603935 -0.21339999982579982 0 0 0
333 37 2 8.166355922176264 2.628086090456863 3.4553207260122734 0 1 0
334 38 2 8.473939249119802 17.927986054049857 13.338257213689868 0 -1 0
335 39 2 1.981574455023311 12.335347829050383 19.096870549028353 0 0 0
336 40 2 3.0524739438992543 16.018156606042282 8.416562492471288 0 0 0
337 41 2 4.953190803315868 14.158648155137913 9.427886945331398 0 0 0
338 42 2 16.65190664395014 12.543060090756825 3.110243328613298 -1 0 0
339 43 2 2.3802059138869347 7.296233541735561 19.253800866791227 1 0 -1
340 44 2 13.070936855900829 7.824495252889255 8.495834205940948 0 0 0
341 45 2 9.780373733443252 6.536379042351448 8.085398766501873 0 0 0
342 46 2 2.656862287280952 14.218285791561442 18.455256197857974 0 0 0
343 47 2 18.44184120971611 12.02047174800602 3.52221893100454 0 0 0
344 48 2 11.349422497818558 13.502345095716985 15.447398307175154 0 0 0
345 41 2 5.349198621094907 15.736835381468412 9.722880387350731 0 0 0
346 42 2 16.048508698069597 13.965406609438585 3.252132187606089 -1 0 0
347 43 2 3.9020741334430293 7.090118489281415 19.04549489749851 0 0 -1
348 44 2 14.565929330873956 7.50529648770703 8.102765469003762 0 0 0
349 45 2 9.024348497137211 7.585003690927951 6.960427998331713 0 0 0
350 46 2 2.7417166514030793 15.491225255146679 19.31603521267426 0 0 0
351 47 2 17.47706494124326 10.75779637051329 3.544283099123144 0 0 0
352 48 2 12.102936182773322 13.489107980379247 14.158292925566407 0 0 0
353 49 2 16.340119539155296 1.1641049217338109 8.118975358653804 0 1 0
354 50 2 17.872609182329374 4.028999976331123 13.401301927692174 0 0 0
355 51 2 4.830139854660277 15.710360163915327 3.8253732861899725 0 0 1
356 52 2 20.0572987154225 13.422751015213619 4.066095743617608 1 0 0
357 53 2 3.888283344361551 10.963494344182985 16.25911897133556 0 0 0
358 54 2 16.35023903392604 6.397934496512957 5.200970454451759 0 0 0
359 55 2 1.5420225103324336 9.565231948892123 13.838395684873449 0 0 0
360 56 2 16.90807014525926 15.25748527971784 10.499670737712144 0 0 0
361 49 2 15.92985391779111 1.7496685261302491 6.699792774495302 0 1 0
362 50 2 16.534857334866306 3.140906669515676 13.254152582052217 0 0 0
363 51 2 5.819140343222237 15.210500054151622 2.690668436274096 0 0 1
364 52 2 19.079464475370475 13.10700058128492 5.396476111757217 0 0 0
365 53 2 2.26401051984935 10.758716728879428 15.97293992618855 0 0 0
366 54 2 17.547584151877356 5.411501566825587 5.253027280412316 0 0 0
367 55 2 1.949414523276838 10.469686178019641 12.509094816985817 0 0 0
368 56 2 18.377758901754085 15.069916428332787 10.075569400272386 0 0 0
369 57 2 7.8143413255653815 0.8147437944337236 10.68748764053368 0 0 0
370 58 2 18.876256234969695 11.244242722815764 17.66778231506457 -1 0 0
371 59 2 7.145463974584704 17.382165963799075 17.261421483699184 0 0 0
372 60 2 18.186855977804335 15.03172057518171 18.024865014798266 -1 0 0
373 61 2 11.31002332205885 11.903174049147784 17.01163057422725 0 0 0
374 62 2 16.054111596545262 7.772795372155499 9.655948060361439 0 0 0
375 63 2 6.423826772681317 5.348376609122257 7.306026609301375 0 0 0
376 64 2 18.32969818085184 8.84057596699543 17.502842933347296 0 0 0
377 57 2 8.471588996472168 -0.1162386557001227 11.560878679792811 0 -1 0
378 58 2 19.925580901720704 12.387733316633126 17.64282484007525 0 0 0
379 59 2 5.653579731903374 17.338478638343393 16.634969238094982 0 0 0
380 60 2 18.36980308712841 13.411987683761675 17.819216961669543 -1 0 0
381 61 2 11.371164968937466 13.100906864388763 18.03649031259075 0 0 0
382 62 2 16.959950329936003 7.046984338560133 8.647480499192323 0 0 0
383 63 2 7.801974719905236 5.930747842950236 6.859808040415274 0 0 0
384 64 2 18.57645440404362 9.704586064026719 18.83148455206488 0 0 0
385 65 2 8.371859031072251 2.490484737077063 5.916603723619967 0 0 0
386 66 2 15.30495882683692 4.327923973818888 16.43971064342146 0 0 0
387 67 2 15.22967760169808 8.376802274152483 0.4862156815681868 0 0 1
388 68 2 11.841027888385588 1.2021483958958847 2.5987749831857525 0 1 0
389 69 2 16.650325995725897 9.422548282036836 7.849367444583106 0 0 0
390 70 2 6.237561665703377 6.6904278007550415 20.053306611960082 0 0 0
391 71 2 0.8971343627502185 4.203613039781625 7.06772221926023 1 0 0
392 72 2 10.021826643149515 13.261156394063658 1.5609255494692287 0 0 0
393 65 2 7.802693741142473 3.603752912987383 6.884752035759854 0 0 0
394 66 2 16.82488718312504 4.569023889605827 16.366175303814398 0 0 0
395 67 2 16.003085007672237 7.461796732447387 1.5524994230610156 0 0 0
396 68 2 12.199168994080514 2.016208416305111 3.964795668021425 0 1 0
397 69 2 15.551333459877691 10.395914487718414 7.661401482928967 0 0 0
398 70 2 5.917258948642083 8.16959737973873 19.70200242654281 0 0 0
399 71 2 2.128995727656818 3.2675700453994905 7.198572453307201 1 0 0
400 72 2 8.888469740433097 13.406493029985757 2.631845859379403 0 0 0
401 73 2 11.779162158205205 6.517810460705616 18.39391940348282 0 0 0
402 74 2 5.942611737020811 1.0737619216967933 15.639345302164884 0 0 0
403 75 2 14.700562234521668 8.66051495631322 18.066594864106218 0 0 0
404 76 2 3.8340175205621896 0.6560975229899326 3.172775579349843 0 0 0
405 77 2 15.518319336551421 19.514529975515135 11.76687460336586 0 -1 0
406 78 2 8.851066070496014 15.938265674233742 10.009078117054447 0 0 0
407 79 2 1.5894648706807812 14.711077188040944 3.276721194360903 1 0 0
408 80 2 5.909044145594733 15.01115071447358 14.012366721377493 0 0 0
409 73 2 11.52349604026206 5.077538951160493 18.831351690393493 0 0 0
410 74 2 6.486471275103013 -0.32070205516058437 16.290778499086564 0 -1 0
411 75 2 14.178464586923285 10.051065704979147 18.513348707912222 0 0 0
412 76 2 2.413637185445847 0.12153345452163888 3.890419837774138 0 1 0
413 77 2 14.381963573419428 19.885274272301878 12.735152647419914 0 0 0
414 78 2 8.727166358797165 17.186704141979547 11.07828877337945 0 0 0
415 79 2 1.5518795874777525 13.397904720343456 2.3959125078639594 1 0 0
416 80 2 5.331266277225407 15.042239554388829 15.364212105302625 0 0 0
417 81 2 13.102503960653154 0.4204458781109865 15.030067985875794 0 1 0
418 82 2 12.132596905800794 3.3264234034134077 2.209003185790008 0 0 1
419 83 2 16.284628886138456 7.758447504849304 11.561980016349336 0 0 0
420 84 2 9.187242313073764 17.59311157983638 15.559522265083759 0 0 0