ITEM: TIMESTEP
0
ITEM: NUMBER OF ATOMS
144
ITEM: BOX BOUNDS xy xz yz pp pp pp
7.0083218887965135e-02 1.7677916781112046e+01 0.0000000000000000e+00
7.0083218887965135e-02 1.7677916781112046e+01 0.0000000000000000e+00
5.0971049662263616e-02 1.2857028950337751e+01 0.0000000000000000e+00
ITEM: ATOMS id type x y z vx vy vz 
1 1 0.0700832 0.0700832 0.050971 -2.58125 0.832422 0.194488 
2 1 0.0700832 0.0700832 3.25249 -2.51641 0.0304452 0.394506 
3 1 0.0700832 0.0700832 6.454 0.96793 0.226593 2.2979 
4 1 0.0700832 0.0700832 9.65551 1.7768 0.459589 0.351608 
5 1 0.0700832 5.93936 0.050971 1.25122 1.08461 -2.37376 
6 1 0.0700832 5.93936 3.25249 -0.71969 2.37836 -0.118683 
7 1 0.0700832 5.93936 6.454 2.14267 -1.34659 0.530111 
8 1 0.0700832 5.93936 9.65551 0.872027 -1.73805 -0.824784 
9 1 0.0700832 11.8086 0.050971 -1.9008 0.730839 0.849339 
10 1 0.0700832 11.8086 3.25249 -0.0787059 2.55773 2.55487 
11 1 0.0700832 11.8086 6.454 -1.1988 -0.735573 -0.907593 
12 1 0.0700832 11.8086 9.65551 2.6964 -2.00931 -1.43311 
13 1 5.93936 0.0700832 0.050971 -1.35586 2.27299 0.339629 
14 1 5.93936 0.0700832 3.25249 1.86046 -1.43164 2.11898 
15 1 5.93936 0.0700832 6.454 0.903506 2.2531 0.692673 
16 1 5.93936 0.0700832 9.65551 -1.98018 -0.542741 -2.79447 
17 1 5.93936 5.93936 0.050971 2.5739 -0.916583 -2.29046 
18 1 5.93936 5.93936 3.25249 -2.84258 -0.277978 -1.70199 
19 1 5.93936 5.93936 6.454 -2.33482 -0.381373 -2.65034 
20 1 5.93936 5.93936 9.65551 1.58248 0.44769 2.31711 
21 1 5.93936 11.8086 0.050971 1.47227 0.353315 -2.8312 
22 1 5.93936 11.8086 3.25249 2.60813 -2.57324 0.899418 
23 1 5.93936 11.8086 6.454 -0.838448 2.88168 0.107096 
24 1 5.93936 11.8086 9.65551 0.0657048 0.442428 0.439011 
25 1 11.8086 0.0700832 0.050971 -1.15437 1.71825 1.39697 
26 1 11.8086 0.0700832 3.25249 0.61421 -1.49561 0.271359 
27 1 11.8086 0.0700832 6.454 2.71327 -1.22527 2.74329 
28 1 11.8086 0.0700832 9.65551 -2.23722 1.20435 2.12826 
29 1 11.8086 5.93936 0.050971 1.02198 2.7264 -1.50417 
30 1 11.8086 5.93936 3.25249 -1.27729 1.50218 -0.648914 
31 1 11.8086 5.93936 6.454 -0.366353 -2.32378 -1.35654 
32 1 11.8086 5.93936 9.65551 -1.17765 2.83231 1.21279 
33 1 11.8086 11.8086 0.050971 -2.18198 0.640078 -1.25668 
34 1 11.8086 11.8086 3.25249 -1.95006 -1.9909 2.20284 
35 1 11.8086 11.8086 6.454 2.3425 -1.04196 2.41575 
36 1 11.8086 11.8086 9.65551 -2.56968 -1.0125 1.28954 
37 1 3.00472 3.00472 1.65173 1.14252 -2.44019 -1.66217 
38 1 3.00472 3.00472 4.85324 -2.45343 2.54004 -0.564245 
39 1 3.00472 3.00472 8.05476 -2.55683 1.54409 -0.344613 
40 1 3.00472 3.00472 11.2563 1.6881 -1.66612 2.21866 
41 1 3.00472 8.874 1.65173 -2.92419 1.35015 0.334371 
42 1 3.00472 8.874 4.85324 0.0439514 -1.649 1.43933 
43 1 3.00472 8.874 8.05476 2.81659 -1.50353 -0.189631 
44 1 3.00472 8.874 11.2563 -1.63392 2.84437 2.1017 
45 1 3.00472 14.7433 1.65173 -1.01524 -2.66077 1.26381 
46 1 3.00472 14.7433 4.85324 1.36667 2.80058 -1.14581 
47 1 3.00472 14.7433 8.05476 -2.28706 0.310761 -2.53573 
48 1 3.00472 14.7433 11.2563 0.540732 -1.63478 -1.94996 
49 1 8.874 3.00472 1.65173 1.74608 -2.2561 -0.537498 
50 1 8.874 3.00472 4.85324 2.68304 -1.56009 1.35259 
51 1 8.874 3.00472 8.05476 -0.905632 -1.11975 -0.939619 
52 1 8.874 3.00472 11.2563 1.05724 1.06322 1.63938 
53 1 8.874 8.874 1.65173 1.1269 0.416752 1.65753 
54 1 8.874 8.874 4.85324 0.223625 0.351179 1.66291 
55 1 8.874 8.874 8.05476 -1.60468 -1.95345 2.64999 
56 1 8.874 8.874 11.2563 -0.914514 -0.363539 -2.95226 
57 1 8.874 14.7433 1.65173 -0.910111 -1.38392 2.11513 
58 1 8.874 14.7433 4.85324 -0.484377 -1.03453 0.249881 
59 1 8.874 14.7433 8.05476 -0.527109 2.04501 0.0683593 
60 1 8.874 14.7433 11.2563 1.04191 -2.66623 1.68328 
61 1 14.7433 3.00472 1.65173 0.299373 -1.75957 1.00198 
62 1 14.7433 3.00472 4.85324 -2.37388 0.89452 -0.525735 
63 1 14.7433 3.00472 8.05476 -1.5696 -0.989583 -0.150009 
64 1 14.7433 3.00472 11.2563 0.737104 -1.73276 1.66382 
65 1 14.7433 8.874 1.65173 2.22237 -0.47051 -0.544932 
66 1 14.7433 8.874 4.85324 -1.08362 2.11043 -2.60932 
67 1 14.7433 8.874 8.05476 -1.44938 -0.0439068 -2.89026 
68 1 14.7433 8.874 11.2563 2.48693 2.94082 1.61212 
69 1 14.7433 14.7433 1.65173 -1.33747 -0.190133 -2.43177 
70 1 14.7433 14.7433 4.85324 -0.468762 1.75488 -0.444848 
71 1 14.7433 14.7433 8.05476 1.90709 -2.45955 1.79376 
72 1 14.7433 14.7433 11.2563 -0.8746 1.12389 0.0262586 
73 1 3.00472 0.0700832 2.45211 -2.588 2.74705 -0.631205 
74 1 3.00472 0.0700832 5.65362 -2.77391 -0.272096 -0.934092 
75 1 3.00472 0.0700832 8.85514 1.62256 -1.07452 -2.54071 
76 1 3.00472 0.0700832 12.0567 -2.27055 0.821778 0.167719 
77 1 3.00472 5.93936 2.45211 -2.35216 2.47813 -2.34788 
78 1 3.00472 5.93936 5.65362 1.48834 -0.772501 1.62363 
79 1 3.00472 5.93936 8.85514 1.85399 -0.399021 0.792814 
80 1 3.00472 5.93936 12.0567 1.98055 -2.62181 -1.84008 
81 1 3.00472 11.8086 2.45211 2.02255 -0.670511 2.03006 
82 1 3.00472 11.8086 5.65362 0.843612 -0.390278 -2.29045 
83 1 3.00472 11.8086 8.85514 -2.59759 -2.6293 -0.785267 
84 1 3.00472 11.8086 12.0567 -1.3137 1.13192 2.27497 
85 1 8.874 0.0700832 2.45211 -2.93528 -0.469247 -2.39708 
86 1 8.874 0.0700832 5.65362 -0.207066 -2.53885 1.98004 
87 1 8.874 0.0700832 8.85514 2.53314 0.621678 1.06889 
88 1 8.874 0.0700832 12.0567 2.75951 2.79748 -1.26239 
89 1 8.874 5.93936 2.45211 0.238263 -1.75519 -0.360663 
90 1 8.874 5.93936 5.65362 -2.64327 2.8624 -0.807312 
91 1 8.874 5.93936 8.85514 -2.52831 1.9008 -0.250651 
92 1 8.874 5.93936 12.0567 -0.111959 -2.39943 2.50657 
93 1 8.874 11.8086 2.45211 0.593059 0.767928 1.01746 
94 1 8.874 11.8086 5.65362 -1.89201 -1.63453 2.36572 
95 1 8.874 11.8086 8.85514 -0.906669 -1.22774 1.53114 
96 1 8.874 11.8086 12.0567 -0.583952 -1.2508 0.578202 
97 1 14.7433 0.0700832 2.45211 1.31894 2.57499 -1.73997 
98 1 14.7433 0.0700832 5.65362 -0.330259 -1.56212 1.83711 
99 1 14.7433 0.0700832 8.85514 0.655562 1.07809 -2.2161 
100 1 14.7433 0.0700832 12.0567 0.581597 -1.4672 -1.22169 
101 1 14.7433 5.93936 2.45211 -2.49748 0.727555 -2.42179 
102 1 14.7433 5.93936 5.65362 -0.0960132 0.179172 1.57763 
103 1 14.7433 5.93936 8.85514 1.83393 2.75182 -1.23414 
104 1 14.7433 5.93936 12.0567 1.79215 -1.14792 -1.36295 
105 1 14.7433 11.8086 2.45211 0.729976 -0.362331 0.0321055 
106 1 14.7433 11.8086 5.65362 -2.41219 -2.48128 0.16792 
107 1 14.7433 11.8086 8.85514 1.01776 1.00308 0.744669 
108 1 14.7433 11.8086 12.0567 0.615863 -2.5638 -1.88829 
109 1 0.0700832 3.00472 0.85135 -0.394074 -0.850436 1.57578 
110 1 0.0700832 3.00472 4.05286 -0.3969 -2.186 0.513744 
111 1 0.0700832 3.00472 7.25438 2.75549 -1.39406 -1.042 
112 1 0.0700832 3.00472 10.4559 -0.20928 0.651161 0.37391 
113 1 0.0700832 8.874 0.85135 1.01513 2.95786 -0.462879 
114 1 0.0700832 8.874 4.05286 -1.08224 2.30914 2.05885 
115 1 0.0700832 8.874 7.25438 0.0182749 -0.433647 1.61918 
116 1 0.0700832 8.874 10.4559 2.07054 -1.84639 1.66689 
117 1 0.0700832 14.7433 0.85135 1.79071 -2.23849 1.24053 
118 1 0.0700832 14.7433 4.05286 2.43873 0.711427 -2.28568 
119 1 0.0700832 14.7433 7.25438 2.47622 1.82052 0.694236 
120 1 0.0700832 14.7433 10.4559 1.20902 1.60889 -1.67278 
121 1 5.93936 3.00472 0.85135 -2.02581 0.0109306 1.31077 
122 1 5.93936 3.00472 4.05286 0.111018 0.356207 -0.378173 
123 1 5.93936 3.00472 7.25438 -2.66216 2.6624 1.82418 
124 1 5.93936 3.00472 10.4559 2.59426 0.913359 -1.25132 
125 1 5.93936 8.874 0.85135 1.57767 0.311822 -2.00784 
126 1 5.93936 8.874 4.05286 -1.70872 -2.19613 -2.3541 
127 1 5.93936 8.874 7.25438 0.901813 2.64408 -0.26742 
128 1 5.93936 8.874 10.4559 0.795888 -0.440836 1.96499 
129 1 5.93936 14.7433 0.85135 -2.22049 -0.302037 -2.14902 
130 1 5.93936 14.7433 4.05286 2.75832 0.064969 -2.14773 
131 1 5.93936 14.7433 7.25438 1.39841 -0.432397 -0.46133 
132 1 5.93936 14.7433 10.4559 1.87042 -1.28013 -1.78569 
133 1 11.8086 3.00472 0.85135 -1.17354 2.60118 -0.0201237 
134 1 11.8086 3.00472 4.05286 2.60241 -0.597037 2.09879 
135 1 11.8086 3.00472 7.25438 1.91697 2.05232 1.65889 
136 1 11.8086 3.00472 10.4559 0.00872741 0.665199 -0.268882 
137 1 11.8086 8.874 0.85135 -0.705128 -0.993371 -0.346728 
138 1 11.8086 8.874 4.05286 0.75136 1.29567 2.04671 
139 1 11.8086 8.874 7.25438 -2.10584 -0.570886 -2.67792 
140 1 11.8086 8.874 10.4559 -0.440764 -0.832511 2.80904 
141 1 11.8086 14.7433 0.85135 0.729004 0.615388 -0.777444 
142 1 11.8086 14.7433 4.05286 -2.53494 0.204358 -2.10544 
143 1 11.8086 14.7433 7.25438 2.46052 -2.33956 -1.12073 
144 1 11.8086 14.7433 10.4559 -1.9911 0.638732 -0.80849 
ITEM: TIMESTEP
500
ITEM: NUMBER OF ATOMS
144
ITEM: BOX BOUNDS xy xz yz pp pp pp
6.2907884924152668e-01 1.7118921150758478e+01 0.0000000000000000e+00
6.2907884924152668e-01 1.7118921150758478e+01 0.0000000000000000e+00
5.3856702747755403e-01 1.2369432972522464e+01 0.0000000000000000e+00
ITEM: ATOMS id type x y z vx vy vz 
1 1 17.098 17.1617 0.516549 3.58878 -0.935572 0.57569 
2 1 0.569989 0.541595 3.55348 -2.24432 -2.43941 -1.88735 
3 1 0.596719 16.9847 6.64368 -1.78987 -0.88668 0.766521 
4 1 0.618958 17.049 9.50025 -2.96212 1.71581 -2.33719 
5 1 0.78106 6.12851 0.505924 -0.74833 -1.49574 1.79649 
6 1 17.0201 6.16647 3.45912 1.00729 -0.804548 -0.102676 
7 1 0.763573 6.13304 6.3533 -1.57077 -0.396008 1.20728 
8 1 0.766758 5.85672 9.3392 -0.170575 2.93535 -3.05794 
9 1 17.2008 11.5737 0.666194 1.83721 -2.61091 -2.92406 
10 1 0.627849 11.5867 3.53324 -0.860959 -0.883961 -2.97656 
11 1 17.1368 11.3977 6.43114 2.47096 1.35711 -1.74109 
12 1 0.712856 11.6204 9.52927 -0.85679 0.672172 1.4785 
13 1 6.15068 17.0959 0.612333 2.13466 -0.666957 -0.445762 
14 1 6.13393 17.2392 3.54258 1.31098 3.11754 -1.17084 
15 1 6.22045 0.672955 6.53237 -1.76385 0.652892 -0.573967 
16 1 6.24348 0.626326 9.31906 2.94467 1.61406 -2.28131 
17 1 6.12618 6.13911 12.1839 -1.37721 -0.272559 -1.08819 
18 1 6.05942 6.10525 3.33813 0.145292 1.73865 0.400574 
19 1 6.1552 6.06161 6.36022 1.96479 -3.5089 1.89865 
20 1 6.25628 6.16231 9.40232 -0.722866 -0.278402 2.44065 
21 1 6.23445 11.5457 12.4282 2.14199 1.15678 2.71906 
22 1 6.28174 11.5206 3.6423 -0.637685 1.51666 1.04131 
23 1 6.14158 11.6829 6.43246 -0.840808 -1.75866 -0.823328 
24 1 6.08687 11.7858 9.38649 0.891878 2.64337 -1.89928 
25 1 11.571 0.653997 0.716965 -0.15564 -2.07298 -2.98645 
26 1 11.6821 17.0475 3.55276 -1.55511 1.44922 1.04475 
27 1 11.6942 17.0722 6.63153 -0.766275 -0.729907 0.708246 
28 1 11.8211 0.725214 9.42019 1.6517 -1.49818 -0.0963332 
29 1 11.8708 6.30752 12.1963 -0.0235536 -0.583934 0.388287 
30 1 11.6672 6.09728 3.35168 3.55645 1.5309 -1.47405 
31 1 11.6517 6.04296 6.29834 1.54696 0.564882 -0.0176697 
32 1 11.5868 6.16545 9.43509 3.12417 0.616955 1.62325 
33 1 11.4937 11.6846 0.748715 -0.598882 -1.3359 -0.306182 
34 1 11.6051 11.5953 3.7436 0.459089 1.14511 -0.561649 
35 1 11.5919 11.5073 6.55307 2.06121 3.34169 -1.76437 
36 1 11.5194 11.4411 9.56769 1.57732 1.12242 -0.427344 
37 1 3.34018 3.4276 2.14451 -0.0286476 1.69406 -1.95962 
38 1 3.33813 3.47521 4.96965 -1.88193 -2.69335 -0.635203 
39 1 3.20103 3.46177 7.93336 2.77623 -4.47196 -1.23415 
40 1 3.36493 3.26902 11.0303 -2.63796 -0.512432 1.46301 
41 1 3.29003 8.94596 2.17336 -2.26242 0.897423 -0.979348 
42 1 3.2857 8.91374 5.02784 -1.90105 -1.1368 -0.060915 
43 1 3.30827 8.70302 7.90129 0.841371 -0.0772043 0.151991 
44 1 3.38313 9.03246 10.7715 -1.29294 1.45462 0.281698 
45 1 3.26043 14.3732 1.93874 2.17216 1.43016 -1.7339 
46 1 3.37902 14.4487 5.02898 -2.69279 -0.120724 0.746872 
47 1 3.42009 14.3501 7.90238 -3.10721 1.31332 0.752438 
48 1 3.39249 14.4406 10.6914 1.54004 -1.18603 0.860293 
49 1 8.86245 3.43015 2.26487 0.987586 0.415292 1.95919 
50 1 8.94614 3.34431 5.08041 0.464664 -1.32676 0.226067 
51 1 8.89428 3.37897 8.01002 0.65595 -0.421392 -2.49557 
52 1 8.96297 3.40976 10.8777 -2.17987 -1.29963 -1.9738 
53 1 8.76088 8.88787 1.96218 -1.50706 -0.643382 -3.50436 
54 1 8.82843 8.76351 5.03277 -0.550339 0.350518 2.53669 
55 1 8.80886 9.01553 7.98501 -0.46057 0.234571 0.595613 
56 1 8.93665 8.79994 10.6823 2.09595 -1.03132 -0.333411 
57 1 8.84543 14.2599 2.28319 1.40785 0.684887 0.576454 
58 1 8.75042 14.4458 5.05333 0.451128 2.79503 0.173757 
59 1 8.80985 14.4777 8.04332 1.08337 -1.77153 -2.09374 
60 1 8.97139 14.3286 10.9729 0.637324 0.347469 0.386955 
61 1 14.2325 3.37027 2.08535 -1.87878 -0.96595 -1.63043 
62 1 14.2604 3.42416 5.07068 1.11768 1.20583 -0.200605 
63 1 14.2748 3.54453 8.0291 0.509805 -1.51162 2.88454 
64 1 14.3865 3.37988 11.1484 0.280988 -1.33928 0.121364 
65 1 14.2956 8.84909 1.82651 0.829668 0.75827 2.61019 
66 1 14.3444 9.15438 4.60457 -1.66562 0.285494 0.17192 
67 1 14.2286 8.947 7.6523 -0.588068 1.70611 -0.85987 
68 1 14.5548 8.94881 10.7506 -1.22838 0.473997 -0.667843 
69 1 14.1664 14.376 1.99177 -0.104616 -0.957384 1.31882 
70 1 14.4546 14.3487 5.01723 0.509143 -3.5602 0.840564 
71 1 14.3855 14.2342 7.98058 0.892716 2.08565 0.0982131 
72 1 14.3281 14.3444 10.8436 -0.210165 -0.872924 1.38444 
73 1 3.2536 0.662179 2.69121 2.50577 -2.09217 0.830097 
74 1 3.36424 0.791958 5.618 2.14347 0.0712346 -1.69159 
75 1 3.39945 0.72973 8.63456 -2.56861 0.733389 1.55119 
76 1 3.46899 0.459256 11.4788 -2.43925 0.0837357 -2.86667 
77 1 3.22699 6.11034 2.84207 -1.36794 -2.69776 0.236796 
78 1 3.56004 6.19479 5.74966 -0.960206 1.14005 3.61709 
79 1 3.59432 6.05794 8.72035 -4.42892 2.95554 -2.39566 
80 1 3.36843 6.2006 11.671 0.540174 -0.634798 -2.52733 
81 1 3.47582 11.6338 2.77695 0.453113 -0.0579261 -1.71422 
82 1 3.40019 11.6636 5.76224 -2.13569 -0.300274 -1.62808 
83 1 3.41042 11.6504 8.63724 1.5429 2.99865 0.968332 
84 1 3.39469 11.7405 11.6178 0.465264 -0.953569 -1.4184 
85 1 8.91551 17.0965 2.65758 -0.984191 1.94542 0.236687 
86 1 9.04663 0.648096 5.68605 -0.847369 -1.56621 1.52183 
87 1 8.99321 0.682715 8.61771 0.0288067 -1.92273 -2.12939 
88 1 9.04574 17.1974 11.6859 -0.298521 1.64813 0.407092 
89 1 8.86594 6.17752 2.89406 1.74626 -3.0924 0.570465 
90 1 8.91313 6.23216 5.66746 1.69818 0.958809 -0.353583 
91 1 8.92262 6.22801 8.61617 0.178769 -1.04207 0.286823 
92 1 8.87163 6.09822 11.7593 -2.62718 -4.42985 1.4609 
93 1 8.84178 11.4989 2.76314 -3.64067 -2.48057 1.12475 
94 1 8.8993 11.5598 5.60973 -2.16154 0.584271 -1.9909 
95 1 8.84234 11.7016 8.69117 -1.09619 -1.38415 -2.18848 
96 1 8.8492 11.4689 11.6709 -0.302309 -1.38281 -1.37538 
97 1 14.4178 17.1839 2.73494 1.2235 2.66524 -0.274032 
98 1 14.3975 0.628089 5.72306 -0.126822 -0.60391 -1.01374 
99 1 14.5783 17.2018 8.47744 -2.26477 1.30382 0.357242 
100 1 14.2447 17.1559 11.5977 -1.44579 0.802803 -0.138657 
101 1 14.3046 6.18236 2.62967 3.43527 0.566387 2.5903 
102 1 14.3432 6.31175 5.64435 0.522085 3.48365 1.24411 
103 1 14.5079 6.34609 8.64914 0.245148 -1.94848 -0.692442 
104 1 14.5852 6.18837 11.5444 -4.01458 2.16005 1.34708 
105 1 14.4212 11.5751 2.7558 -2.80703 -3.32085 0.487934 
106 1 14.3417 11.6373 5.83606 1.64221 0.0815472 -0.113394 
107 1 14.5803 11.5426 8.70762 0.543966 -2.511 2.99968 
108 1 14.2877 11.4585 11.689 0.475975 -1.14764 0.929557 
109 1 17.186 3.40789 1.37879 0.46091 4.55685 0.305082 
110 1 0.464269 3.22671 4.24661 -1.56801 1.16389 -1.24218 
111 1 16.9317 3.386 7.0427 2.41594 -2.20027 -1.87953 
112 1 17.1957 3.18124 10.1026 0.0720892 3.91685 -1.29133 
113 1 0.635221 8.90479 1.49848 -1.04329 0.929243 -4.45591 
114 1 0.593513 8.96564 4.40094 0.343969 1.31847 1.19667 
115 1 17.0223 8.77545 7.44233 2.01009 2.31803 -0.60987 
116 1 0.730798 8.75725 10.2603 1.05555 -2.86835 0.61745 
117 1 16.9811 14.3344 1.2608 2.79188 0.397832 0.672047 
118 1 0.670455 14.3495 4.18106 0.00273978 -1.63727 -0.0932675 
119 1 0.713283 14.1331 7.15637 -0.986627 0.783256 0.672308 
120 1 17.1101 14.34 10.2303 -1.04298 0.502071 -0.501381 
121 1 6.13068 3.4231 1.10305 3.76299 3.63434 -0.582667 
122 1 6.00118 3.33123 4.23276 0.0718333 -1.97089 0.511673 
123 1 5.99278 3.33085 7.21972 0.0277132 -1.96287 2.38178 
124 1 6.11792 3.45287 10.1354 -1.2796 0.933179 -0.51367 
125 1 6.02836 8.78529 1.27569 -0.3702 -2.05883 -1.7323 
126 1 6.10361 8.76022 4.25901 3.70746 1.89577 2.0488 
127 1 6.09256 8.87071 7.14659 -1.81681 -0.722769 1.76704 
128 1 6.25586 8.92734 10.175 -1.32476 0.288842 0.171033 
129 1 6.19927 14.3995 1.05504 -0.0501734 1.73037 1.54925 
130 1 6.01961 14.3228 3.90946 -1.33703 0.840775 0.167748 
131 1 6.04107 14.3319 6.9928 1.7886 -3.12976 1.93171 
132 1 6.19678 14.3552 10.0618 2.59533 -0.280612 2.33517 
133 1 11.4899 3.55583 1.16848 -0.500145 -0.291952 -0.736003 
134 1 11.6598 3.3655 4.21598 1.74501 -0.807977 0.511585 
135 1 11.5667 3.37487 7.27579 -2.04567 2.90559 0.995008 
136 1 11.66 3.49311 10.1746 0.424219 -3.00605 2.21121 
137 1 11.5468 9.03204 1.32554 0.380624 -1.91757 1.54683 
138 1 11.5303 8.69646 4.25354 0.349288 -2.30412 1.02617 
139 1 11.5355 8.78673 7.24428 1.54474 1.55442 -1.19298 
140 1 11.648 8.72869 10.3537 -0.51025 2.15492 2.01091 
141 1 11.422 14.4345 1.13435 -0.806464 3.09336 2.6009 
142 1 11.4278 14.3238 4.06239 0.795141 1.94825 -1.35413 
143 1 11.5204 14.2207 6.9431 -1.54467 -2.68027 2.59028 
144 1 11.5284 14.4111 10.0126 -0.837731 2.39451 1.18456 
ITEM: TIMESTEP
1000
ITEM: NUMBER OF ATOMS
144
ITEM: BOX BOUNDS xy xz yz pp pp pp
6.3967509900736097e-01 1.7108324900992663e+01 0.0000000000000000e+00
6.3967509900736097e-01 1.7108324900992663e+01 0.0000000000000000e+00
5.5070221757834847e-01 1.2357297782421654e+01 0.0000000000000000e+00
ITEM: ATOMS id type x y z vx vy vz 
1 1 0.658702 16.8938 12.2705 -2.37437 -1.93509 -0.205235 
2 1 0.716162 16.8359 3.46895 0.668901 -0.505155 -0.682245 
3 1 17.0124 16.908 6.43441 1.66801 -0.147116 -2.34978 
4 1 16.9908 17.0793 9.31924 2.0413 -1.91263 2.15382 
5 1 17.0138 6.09105 0.727806 2.5977 3.3661 0.723045 
6 1 0.867643 6.06032 3.6071 2.19304 -2.99772 -2.69489 
7 1 0.736312 5.98866 6.49203 1.13233 -1.7767 3.216 
8 1 17.0021 6.13246 9.51537 -3.62164 -0.779898 -2.08256 
9 1 17.0462 11.6417 12.1026 1.144 0.280336 -0.191757 
10 1 17.0296 11.4906 3.20711 2.8094 2.84902 1.87016 
11 1 0.721848 11.4917 6.16529 1.94898 1.66434 1.62475 
12 1 0.798612 11.76 9.12064 -2.25844 -0.293173 -2.5304 
13 1 6.14444 0.773471 12.1711 -3.17101 -1.50041 -0.724065 
14 1 6.16774 0.650485 3.29202 -0.530656 -0.711763 -1.46421 
15 1 6.16655 17.0899 6.19747 4.77143 2.23931 -1.89572 
16 1 6.15738 17.0434 9.30773 -4.67978 -2.24318 -0.568475 
17 1 6.05831 6.11404 12.3236 4.41557 -0.450773 1.38027 
18 1 6.25673 6.07105 3.66932 -0.699342 -0.106651 1.78507 
19 1 6.16553 5.93165 6.5274 1.09709 3.83862 -1.6201 
20 1 6.11657 6.03549 9.52006 -0.0558797 -1.3664 -2.78738 
21 1 6.18127 11.7672 0.61823 -0.508934 -1.50106 -1.61362 
22 1 6.13975 11.6445 3.59345 2.37926 -0.420242 -2.75433 
23 1 6.09576 11.6297 6.54171 -0.684468 1.92923 0.418423 
24 1 6.12624 11.5032 9.41854 -0.661524 -1.43396 3.73632 
25 1 11.706 16.9171 0.604081 1.65929 -1.2518 0.557833 
26 1 11.6813 17.059 3.55936 3.69305 -0.501843 1.853 
27 1 11.5364 17.0166 6.4878 -1.37325 3.0301 1.96346 
28 1 11.6781 17.0937 9.52107 -1.39314 -2.59154 -2.35333 
29 1 11.5829 6.07679 0.647243 2.6626 0.81608 1.28431 
30 1 11.9151 6.114 3.53439 -1.31846 -1.8199 0.360084 
31 1 11.748 6.10127 6.42681 0.401137 2.03773 0.517354 
32 1 11.5737 6.19449 9.46238 -0.390906 -0.866589 0.953486 
33 1 11.5275 11.7653 12.1386 2.9137 4.26813 0.705242 
34 1 11.4842 11.5924 3.34832 0.00185846 -0.97633 2.1063 
35 1 11.6762 11.6359 6.32236 0.749864 -1.36785 -0.222296 
36 1 11.8744 11.5549 9.3201 0.0547076 0.456996 -0.56444 
37 1 3.29125 3.32994 1.98321 -0.876553 0.359579 -1.75872 
38 1 3.27245 3.4057 4.75519 -1.00003 2.06727 -1.44194 
39 1 3.377 3.44461 7.79647 -3.3565 -0.225718 0.456128 
40 1 3.25353 3.26491 10.9196 0.129869 0.292275 1.03114 
41 1 3.29627 8.94596 2.0418 1.40692 -1.68344 -1.44661 
42 1 3.4308 8.87991 5.03901 0.231631 -1.67629 1.53505 
43 1 3.39042 9.03848 7.91749 2.04941 -1.4023 0.508386 
44 1 3.31836 8.95245 10.8495 -2.48475 3.16298 0.751696 
45 1 3.35917 14.4531 2.01802 -0.63308 0.781544 1.40154 
46 1 3.17795 14.4674 4.97127 1.3367 1.86273 0.23285 
47 1 3.42176 14.6074 7.92734 0.639386 -1.94489 -2.5659 
48 1 3.29172 14.4025 10.8214 -0.428885 0.641595 -1.83022 
49 1 8.98657 3.67195 1.9052 2.61447 -2.02822 1.28775 
50 1 8.8085 3.41319 4.71222 -0.414533 0.521771 -1.42177 
51 1 8.88156 3.40355 7.70016 -0.815452 -0.944649 1.94794 
52 1 8.84411 3.30196 10.7296 -1.9787 3.28496 -0.205842 
53 1 8.9456 8.89636 1.83171 -0.90581 0.917007 2.46572 
54 1 8.66073 8.97841 4.95708 0.191317 1.80013 -0.00174481 
55 1 8.85354 8.8014 7.9704 -1.40429 -2.17462 0.551389 
56 1 8.76822 8.76272 10.7983 -1.89061 0.456429 -0.589181 
57 1 9.01042 14.1711 1.89465 -4.70997 2.21828 -2.319 
58 1 8.88514 14.534 4.84185 1.28724 -4.1681 -0.26047 
59 1 8.77553 14.3658 7.96713 -1.71117 0.199633 1.82271 
60 1 8.8825 14.3401 10.8129 -1.27212 0.675707 -2.55558 
61 1 14.3608 3.36522 2.08147 1.1648 -0.00472872 3.07915 
62 1 14.4203 3.45694 4.99905 2.23861 0.989677 -0.447285 
63 1 14.4873 3.61622 8.0644 2.07995 -1.62567 -0.95077 
64 1 14.3056 3.38046 10.8486 -0.879037 0.860541 0.0712416 
65 1 14.4199 8.98922 2.15388 -2.29629 1.2062 -1.10166 
66 1 14.1717 8.95167 4.96231 -0.783216 -2.14914 0.567173 
67 1 14.4847 8.93647 8.04743 -3.17711 -0.940822 2.20397 
68 1 14.077 8.83741 10.971 -1.36411 1.27508 -0.00558119 
69 1 14.5029 14.5191 2.17965 -0.00836036 3.75398 0.293188 
70 1 14.29 14.5028 5.03689 -0.173859 1.76973 0.341134 
71 1 14.19 14.3881 7.91485 -0.203473 -0.845955 -1.35019 
72 1 14.4104 14.3464 11.0453 -3.25989 -0.637579 -3.4016 
73 1 3.40666 0.760451 2.88316 -3.33203 1.53036 2.78948 
74 1 3.37722 0.736748 5.87937 1.32991 0.356109 -0.821118 
75 1 3.38764 0.707835 8.76316 0.930635 0.882652 0.340592 
76 1 3.43227 17.0623 11.6386 1.58211 -1.98817 1.93408 
77 1 3.51958 6.16947 2.6552 -1.29685 0.879081 -1.80435 
78 1 3.38769 6.1309 5.63576 2.30199 0.100488 -3.76475 
79 1 3.40336 6.19265 8.67318 -0.235016 0.4419 -0.983076 
80 1 3.24135 6.26083 11.6454 -0.208339 0.402018 0.71225 
81 1 3.43108 11.7708 2.69286 3.04261 -0.811623 -0.625883 
82 1 3.55202 11.658 5.67487 -1.78719 1.75702 0.139912 
83 1 3.48547 11.7822 8.5884 1.21577 -2.3327 -2.22238 
84 1 3.44227 11.7197 11.6852 -1.05177 -0.120353 -0.435204 
85 1 8.91651 0.677985 2.69791 -2.19575 1.73209 0.244536 
86 1 8.98571 0.714813 5.7657 -2.76233 -0.123772 1.27009 
87 1 8.85243 17.1032 8.70288 -0.0551591 1.29973 1.08657 
88 1 8.96443 0.74483 11.7121 -0.820676 -2.14314 3.23733 
89 1 9.08214 6.26099 2.98962 1.02747 -3.38594 0.141623 
90 1 8.9689 6.31517 5.93075 -3.66883 -0.446718 0.134507 
91 1 8.77568 6.02279 8.74645 -0.567457 0.498391 0.550903 
92 1 8.86535 6.07169 11.7964 0.910441 0.161079 1.25935 
93 1 8.79566 11.5235 2.75516 1.60614 0.924915 1.28331 
94 1 8.85647 11.7731 5.73988 1.98928 -0.952469 2.51943 
95 1 8.8779 11.6065 8.52742 0.120346 -0.779361 -2.25602 
96 1 8.87219 11.5233 11.5285 -1.10882 -1.22113 1.43338 
97 1 14.4923 0.713971 2.8458 1.51052 -1.34448 -0.100152 
98 1 14.1954 0.703763 5.6923 -0.885178 -0.136157 1.20328 
99 1 14.4038 0.709514 8.56608 2.0166 1.88722 -0.471051 
100 1 14.4151 0.708211 11.5899 0.557919 -1.82309 1.24821 
101 1 14.5512 6.12557 2.86313 -3.36259 -1.91704 -1.03911 
102 1 14.5111 6.25792 5.84101 -0.150356 -1.52975 -0.396581 
103 1 14.2384 6.17928 8.89387 1.63491 -0.155629 -1.4758 
104 1 14.3931 6.183 11.8229 0.278222 -0.948545 2.71823 
105 1 14.182 11.6797 2.90207 -0.743799 0.719886 -3.75479 
106 1 14.4918 11.649 5.79508 -2.27404 1.46949 2.50866 
107 1 14.5026 11.5955 8.85973 0.154625 0.892337 0.065072 
108 1 14.3005 11.5662 11.7974 -5.43443 2.78558 -0.831723 
109 1 16.9925 3.22586 1.16549 -1.49872 0.102821 -3.53884 
110 1 17.1121 3.2582 3.95722 2.18532 -0.915745 0.897561 
111 1 0.722558 3.1351 6.9007 0.566458 1.44447 -0.735166 
112 1 0.656138 3.45861 10.0685 0.284166 -1.45813 1.29509 
113 1 0.714667 8.82137 1.17689 2.69727 0.92107 0.950697 
114 1 17.0268 8.74501 4.21786 1.5084 -0.527206 0.665078 
115 1 17.104 8.70642 7.08584 -0.262072 -1.22075 0.102873 
116 1 17.0477 8.93352 10.0173 -1.27022 0.600032 -1.82814 
117 1 17.0817 14.1701 1.4679 1.11949 -3.02912 -3.34712 
118 1 16.9877 14.0141 4.41907 0.293868 2.777 2.83574 
119 1 0.64912 14.274 7.19681 -1.85665 1.9978 0.540904 
120 1 0.666947 14.3763 10.1416 0.682398 2.46989 -0.273327 
121 1 6.07708 3.42527 1.49586 -0.402096 -0.967899 0.212035 
122 1 6.10636 3.31099 4.38239 -0.0953377 0.179505 -1.22465 
123 1 6.12117 3.27899 7.28056 -1.27757 0.937526 -1.00454 
124 1 6.04694 3.39193 10.1099 0.380586 0.102631 1.70855 
125 1 6.06257 8.87826 1.26704 2.13397 -0.928147 -0.086457 
126 1 6.03275 8.93081 4.16205 0.204079 -0.170448 -0.324622 
127 1 6.10474 8.72658 7.14784 -0.691202 0.259095 -1.40563 
128 1 5.97452 8.66283 10.2055 1.27556 0.350554 -0.857096 
129 1 6.15743 14.5871 1.43237 -1.53047 1.4017 1.6954 
130 1 6.06108 14.3601 4.36828 -0.875859 -2.37938 2.17225 
131 1 6.18722 14.3848 7.25251 0.141403 -1.57933 -2.06649 
132 1 6.08344 14.3053 10.4949 0.117907 0.634139 -0.0420818 
133 1 11.661 3.30618 1.13995 -2.07015 -0.15693 -2.05231 
134 1 11.7177 3.39426 4.16317 0.479562 3.56311 0.482158 
135 1 11.7756 3.33918 7.12613 -0.536464 -1.99695 -0.169424 
136 1 11.3647 3.48218 9.99691 2.57016 1.86433 -1.78747 
137 1 11.7166 8.79029 1.34605 -0.751674 -0.693916 0.373567 
138 1 11.4419 8.92752 4.15922 -1.55887 -1.44296 2.15776 
139 1 11.6165 8.91624 7.23727 0.753982 0.0524814 2.50144 
140 1 11.5043 8.80177 10.1156 0.861368 -0.819822 -0.383237 
141 1 11.9245 14.2067 1.49276 3.62371 -0.115269 -1.04225 
142 1 11.6307 14.3943 4.30593 2.44039 -1.35987 1.32668 
143 1 11.3499 14.3261 7.29259 2.07111 -1.83495 1.24021 
144 1 11.6286 14.3767 10.2615 1.39337 1.41515 -1.62611 
