LAMMPS (3 Mar 2020)
clear
# --------------------- VARIABLES-------------------------
variable        NSTEPS          equal 1000
variable        THERMO_FREQ     equal 10
variable        DUMP_FREQ       equal 100
variable        NREPEAT         equal ${NSTEPS}/${DUMP_FREQ}
variable        NREPEAT         equal 1000/${DUMP_FREQ}
variable        NREPEAT         equal 1000/100
variable        TEMP            equal 400.000000
variable        PRES            equal 200000.000000
variable        TAU_T           equal 0.200000
variable        TAU_P           equal 2.000000
# ---------------------- INITIALIZAITION ------------------
units           metal
boundary        p p p
atom_style      atomic
# --------------------- ATOM DEFINITION ------------------
box             tilt large
read_data       conf.lmp
  triclinic box = (0.0700832 0.0700832 0.050971) to (17.6779 17.6779 12.857) with tilt (0 0 0)
  1 by 1 by 1 MPI processor grid
  reading atoms ...
  144 atoms
  reading velocities ...
  144 velocities
  read_data CPU = 0.0327351 secs
change_box      all triclinic
  triclinic box = (0.0700832 0.0700832 0.050971) to (17.6779 17.6779 12.857) with tilt (0 0 0)
mass            1 118.710000
# --------------------- FORCE FIELDS ---------------------
pair_style      deepmd graph.pb
pair_coeff
# --------------------- MD SETTINGS ----------------------
neighbor        1.0 bin
timestep        0.002000
thermo          ${THERMO_FREQ}
thermo          10
compute         allmsd all msd
thermo_style    custom step ke pe etotal enthalpy temp press vol lx ly lz xy xz yz pxx pyy pzz pxy pxz pyz c_allmsd[*]
dump            1 all custom ${DUMP_FREQ} dump.equi id type x y z vx vy vz
dump            1 all custom 100 dump.equi id type x y z vx vy vz
fix             1 all npt temp ${TEMP} ${TEMP} ${TAU_T} aniso ${PRES} ${PRES} ${TAU_P} couple xy
fix             1 all npt temp 400 ${TEMP} ${TAU_T} aniso ${PRES} ${PRES} ${TAU_P} couple xy
fix             1 all npt temp 400 400 ${TAU_T} aniso ${PRES} ${PRES} ${TAU_P} couple xy
fix             1 all npt temp 400 400 0.2 aniso ${PRES} ${PRES} ${TAU_P} couple xy
fix             1 all npt temp 400 400 0.2 aniso 200000 ${PRES} ${TAU_P} couple xy
fix             1 all npt temp 400 400 0.2 aniso 200000 200000 ${TAU_P} couple xy
fix             1 all npt temp 400 400 0.2 aniso 200000 200000 2 couple xy
fix             mzero all momentum 10 linear 1 1 1
# --------------------- INITIALIZE -----------------------
velocity        all create ${TEMP} 7858
velocity        all create 400 7858
velocity        all zero linear
# --------------------- RUN ------------------------------
run             ${NSTEPS}
run             1000
Neighbor list info ...
  update every 1 steps, delay 10 steps, check yes
  max neighbors/atom: 2000, page size: 100000
  master list distance cutoff = 9
  ghost atom cutoff = 9
  binsize = 4.5, bins = 4 4 3
  1 neighbor lists, perpetual/occasional/extra = 1 0 0
  (1) pair deepmd, perpetual
      attributes: , newton on
      pair build: full/bin/atomonly
      stencil: full/bin/3d
      bin: standard
Per MPI rank memory allocation (min/avg/max) = 4.759 | 4.759 | 4.759 Mbytes
Step KinEng PotEng TotEng Enthalpy Temp Press Volume Lx Ly Lz Xy Xz Yz Pxx Pyy Pzz Pxy Pxz Pyz c_allmsd[1] c_allmsd[2] c_allmsd[3] c_allmsd[4] 
       0    7.3936803   -5157.7512   -5150.3576   -5145.4284          400    1989.0809    3970.3364    17.607834    17.607834    12.806058            0            0            0    5434.9886     5221.111   -4688.8567   -375.41916    200.80326   -149.29119            0            0            0            0 
      10    6.5855301   -5156.7226   -5150.1371   -5123.9356    356.27887    10728.524    3912.8787    17.523899    17.523899    12.741921            0            0            0    13853.771    14189.098    4142.7016   -256.67576     490.1417   -153.00788 0.0018724705 0.0018290072 0.0012426703  0.004944148 
      20    4.4564414    -5152.179   -5147.7225   -5056.7006    241.09462    38841.323    3754.5872    17.288503    17.288503    12.561671            0            0            0    42298.277    43496.871    30728.822    81.593187     846.4766   -30.474277  0.013594903  0.013761821  0.007883806   0.03524053 
      30    2.5006941   -5142.0844   -5139.5837   -4948.3236    135.28819    86496.422    3542.7181    16.963674    16.963674    12.311097            0            0            0     90110.63    92389.421    76989.214    449.04125    929.19447    244.49646  0.044845949  0.045994542  0.025437489   0.11627798 
      40    2.9238942    -5128.197   -5125.2731   -4821.6294    158.18343    145507.55    3343.4066    16.647407    16.647407     12.06413            0            0            0    147545.28    151521.64    137455.71    740.78744     440.3704    510.94824  0.091376776  0.094532247  0.052657853   0.23856688 
      50    5.3446703     -5114.68   -5109.3353   -4712.4734    289.14803    198975.74    3195.5798    16.406015    16.406015    11.872535            0            0            0    198773.24    205420.62    192733.36    574.57084   -563.69746    478.46849   0.13717749   0.14289738  0.081145966   0.36122084 
      60    6.3723298   -5102.3147   -5095.9424    -4628.392    344.74467    241701.68    3099.2678    16.246349    16.246349    11.742149            0            0            0    239824.68     249411.9    235868.46   -197.45084   -1259.1669     284.3178   0.17298126   0.18078042   0.10528685   0.45904853 
      70    5.1324352   -5092.0351   -5086.9027   -4570.0265    277.66606     272070.8    3043.7918    16.155372    16.155372    11.662214            0            0            0    268654.43    281298.05    266259.91    -1002.547   -1128.5876   -187.85295   0.19627054   0.20484283   0.12324946   0.52436283 
      80    4.7463589   -5087.8439   -5083.0975   -4546.6483    256.77923    284360.64    3022.5223    16.124431    16.124431    11.625207            0            0            0    280409.21    293516.46    279156.25   -1019.9479   -510.89918   -326.25882   0.20510682   0.21320003   0.13354538   0.55185223 
      90    6.0626421   -5090.5243   -5084.4616   -4557.8534    327.99049    278367.77     3030.952    16.146576    16.146576    11.625675            0            0            0    274579.73    285961.09    274562.51   -628.25075    109.37239    86.504107   0.19929266   0.20676342   0.13538418   0.54144026 
     100    6.5082526   -5096.3134   -5089.8051   -4591.3905    352.09814    260666.76    3063.4826    16.211525    16.211525    11.656488            0            0            0    256811.43    267273.87    257914.98    -543.6174    419.30865   -54.904662   0.18223882   0.18971101     0.129728   0.50167783 
     110    5.4960676   -5102.8448   -5097.3487   -4636.4289    297.33867     237241.8    3112.7522    16.305373    16.305373    11.708009            0            0            0    233381.27    243035.92     235308.2   -414.48878    392.53152   -464.33141   0.15919015    0.1668481     0.118796   0.44483426 
     120    5.0883147   -5110.3353    -5105.247   -4686.8337    275.27913    211482.13    3169.8749    16.411686    16.411686    11.768897            0            0            0     208005.4    215434.94    211006.04   -238.99955    233.91834   -435.90436   0.13495866   0.14232109     0.105487   0.38276676 
     130    5.9036983   -5117.9056   -5112.0019    -4734.462    319.39159    187553.28    3225.1398    16.512975    16.512975    11.827635            0            0            0    184074.89    188851.87    189733.09    36.000421    25.253815   -269.91953   0.11358114   0.12006325  0.092797377   0.32644177 
     140    6.5266031   -5123.3483   -5116.8217   -4770.2704     353.0909    169808.35    3269.7821    16.593802    16.593802    11.874819            0            0            0    165442.65    169463.69    174518.71    353.67666   -289.53213   -90.949752  0.097991098    0.1033584  0.082804594   0.28415409 
     150     6.047337   -5125.6228   -5119.5755   -4789.5496    327.16248    160325.93    3298.0295    16.644362    16.644362    11.904749            0            0            0    155698.55    159522.84    165756.41    351.87222   -590.34834    160.48161  0.089411551  0.093550336  0.076282679   0.25924457 
     160    5.1911083   -5125.6108   -5120.4197   -4794.3283    280.84029    157940.82     3307.922    16.661835    16.661835    11.915427            0            0            0    154531.92    156656.82    162633.72   -93.316686   -700.82279    260.14248   0.08724586  0.089910397  0.073219203   0.25037546 
     170    5.4122694   -5124.9679   -5119.5556   -4788.3557    292.80516    160769.57    3300.6289    16.648804    16.648804    11.907774            0            0            0    159347.37    158039.83    164921.51   -621.00042   -793.51049    49.102768  0.089912789   0.09113077  0.073314059   0.25435762 
     180    6.8131242    -5124.022   -5117.2089   -4774.1895    368.59177    167586.16    3279.3734    16.610964    16.610964    11.885055            0            0            0    167732.29    163604.41    171421.78   -729.81265   -866.11468   -199.03675  0.096075513  0.096626951  0.076261992   0.26896446 
     190    7.9443038   -5121.6499   -5113.7056   -4752.0645    429.78887    178354.31    3248.6618     16.55596     16.55596    11.852112            0            0            0    179446.14    174207.41    181409.37   -338.26234   -503.60524   -300.82699    0.1051112   0.10604113  0.081724737   0.29287707 
     200    7.6829283   -5117.2012   -5109.5183   -4722.8091    415.64839     192777.6    3213.9432      16.4932      16.4932    11.814853            0            0            0    194974.49    188744.61     194613.7    278.17001    296.06538    -239.9296   0.11633004   0.11793673  0.088897264   0.32316403 
     210    6.6650437     -5111.94    -5105.275   -4691.9727    360.58057    208161.96    3181.0967    16.433119    16.433119    11.779772            0            0            0    212505.41    203272.11    208708.34    759.29359    1110.8223    45.856415   0.12787646   0.12965329  0.096053455   0.35358321 
     220    6.5731228   -5108.2691    -5101.696   -4668.9868    355.60763    219722.86    3155.2321     16.38504     16.38504    11.752663            0            0            0    226426.93    213710.01    219031.63    547.37742    908.31508    297.64219   0.13716376   0.13861489   0.10112772   0.37690637 
     230     7.666533   -5107.0152   -5099.3487   -4657.4928     414.7614    225503.95    3139.3291    16.354671    16.354671    11.736895            0            0            0    233047.92    219826.27    223637.66   -166.08975   -114.74785    250.94887   0.14287655   0.14363695   0.10333591   0.38984941 
     240    7.8817364   -5106.3502   -5098.4684   -4653.7468    426.40396    227346.41     3134.083    16.343651    16.343651    11.733088            0            0            0    235022.19    222544.91    224472.14   -482.94235   -922.40906   -25.764666   0.14558294   0.14494018   0.10368095   0.39420407 
     250      6.58307   -5105.6158   -5099.0328   -4655.1015    356.14578    226595.87    3138.8752    16.351139    16.351139    11.740269            0            0            0    234431.03    222026.53    223330.06   -140.63754   -1235.6278   -427.38855   0.14593355    0.1427914   0.10341714   0.39214208 
     260    5.3550654   -5106.1722   -5100.8171   -4664.5276    289.71041    221745.06    3152.3269    16.374667    16.374667    11.756723            0            0            0    230207.77    215486.62     219540.8    258.91135   -1032.9916   -657.06942   0.14350411    0.1371876   0.10277056   0.38346227 
     270    5.5561953   -5108.9233   -5103.3671   -4681.7295    300.59159     212973.3    3171.9367    16.409363    16.409363    11.779886            0            0            0       220851    204938.18    213130.73    135.39748   -395.84525   -677.33016   0.13806047   0.12907149   0.10104996   0.36818192 
     280    6.5287573   -5112.6289   -5106.1002   -4702.0461    353.20745    202673.06    3194.1393    16.448247    16.448247    11.806322            0            0            0    209312.84    194145.98    204560.35   -338.30452    451.25588   -317.33604    0.1309052   0.12039037  0.097655541   0.34895111 
     290    7.2569826   -5115.7757   -5108.5187   -4720.3392    392.60462    193441.08    3215.0981     16.48422     16.48422     11.83198            0            0            0    199553.19     185457.4    195312.64   -508.96541    1119.9217   -16.283808   0.12385556    0.1130536  0.093047806   0.32995697 
     300    7.3497691   -5117.6605   -5110.3107   -4733.0061    397.62439    187060.57    3231.6193    16.511913    16.511913    11.852922            0            0            0    192423.72    180794.38    187963.61   -354.72301    1055.3496     50.94774   0.11796917   0.10816896  0.088772604   0.31491073 
     310    7.0831845    -5118.416   -5111.3329   -4739.4765     383.2021    183782.25     3241.768    16.528439    16.528439     11.86638            0            0            0    188048.14    179153.12    184145.49    100.23953    205.94521   -156.23234   0.11370276   0.10573204  0.086274451   0.30570926 
     320    6.9889846   -5118.5409   -5111.5519    -4741.469    378.10586    182729.05     3244.904    16.532978    16.532978    11.871338            0            0            0    186331.67    178585.31    183270.16     411.3244   -989.94449   -222.95051   0.11139419   0.10536002  0.085813791   0.30256801 
     330    7.1650883   -5118.1734   -5111.0083   -4738.7098    387.63312    184025.01    3241.3416    16.526061    16.526061    11.868234            0            0            0    186881.83    180863.03    184330.18     229.5974   -1464.4618   -280.07508   0.11142118   0.10692921  0.086822169   0.30517255 
     340    7.6268033   -5117.4444   -5109.8176   -4732.0782    412.61202    187240.62    3232.2324    16.509713    16.509713     11.85833            0            0            0    189060.61     186102.1    186559.16   -221.83711   -963.16919   -449.04896   0.11408091   0.11004214  0.088768367   0.31289142 
     350    8.2553468   -5116.4182   -5108.1628   -4721.9238    446.61638    192219.52    3219.3564    16.487197    16.487197    11.843373            0            0            0     193519.8    192199.75    190939.02   -350.07139    25.832442   -443.96698   0.11919654   0.11409143  0.091394855   0.32468283 
     360    8.4084138   -5114.7014   -5106.2929   -4709.6528    454.89734    198284.65    3204.9252    16.462418    16.462418    11.825803            0            0            0    199324.01    199024.66    196505.29    114.50824    1003.1484   -281.22782   0.12548455   0.11899778  0.094574868    0.3390572 
     370    8.0630545    -5112.559    -5104.496   -4697.4899    436.21332    204335.97    3191.2907    16.439485    16.439485     11.80837            0            0            0    203705.18    206684.66    202618.07    605.67735    1294.7336   -18.247183   0.13082873   0.12458716  0.098080874   0.35349677 
     380    7.9493148   -5110.9921   -5103.0427   -4687.9026    430.05997    209125.57    3180.5188    16.421861    16.421861    11.793785            0            0            0     205189.3    213280.28    208907.13    477.47596     821.1153    216.83033   0.13410047   0.13006063   0.10110177   0.36526287 
     390    8.0501108    -5110.186   -5102.1359   -4682.3294    435.51306    211910.85    3173.9957    16.411496    16.411496    11.784468            0            0            0    205917.69    216632.43    213182.41    129.18298    227.03604    245.13395   0.13612934   0.13470106   0.10244544   0.37327584 
     400     7.748724   -5109.6256   -5101.8769   -4680.1091    419.20795    213013.46     3172.318    16.409047    16.409047    11.781754            0            0            0     207134.8    217956.01    213949.58    112.93642   -440.70469  -0.30538702   0.13786706   0.13819027   0.10180544   0.37786278 
     410    7.3078552   -5109.5694   -5102.2616   -4682.1368    395.35684    211975.98    3175.4262    16.414554    16.414554    11.785387            0            0            0    205869.19    218602.81    211455.94    299.91707   -832.64837   -225.12401   0.13880685   0.13990905   0.10031516   0.37903107 
     420    7.3723277   -5110.5398   -5103.1675   -4688.8047    398.84482    208601.87    3182.5329    16.427056    16.427056    11.793791            0            0            0    200772.58    217185.93    207847.11    471.05558   -590.68054   -113.17972   0.13832698    0.1391179  0.099422891   0.37686777 
     430      7.55035   -5111.9282   -5104.3779   -4697.3983    408.47587    204267.76    3192.1493    16.444029    16.444029     11.80502            0            0            0    195408.22    212714.79    204680.29    329.27048   -176.96216   -275.80641   0.13686263   0.13620459  0.099570268   0.37263749 
     440    7.3111551   -5112.9736   -5105.6624   -4705.6304    395.53536    200128.97    3202.5447    16.462143    16.462143    11.817414            0            0            0    191518.85    207303.19    201564.86   -92.174894    156.69937   -638.03603    0.1349198   0.13266117  0.099978041   0.36755901 
     450    6.9375672   -5113.7623   -5106.8248   -4712.9982    375.32416    196434.61    3212.1609    16.478449    16.478449    11.829452            0            0            0    188417.38    203465.69    197420.77   -468.35248    200.47265   -874.76873    0.1324541   0.12999767  0.099581841   0.36203361 
     460    6.7555124   -5114.4632   -5107.7077   -4718.8429    365.47496     193505.1    3219.7083    16.490934    16.490934      11.8393            0            0            0    186243.69    201761.19    192510.42   -465.60062   -21.354779   -1087.4701   0.12943882   0.12880287  0.098160601   0.35640229 
     470    7.0693643   -5115.2758   -5108.2064   -4722.9867    382.45442    191420.96    3224.2549     16.49863     16.49863     11.84496            0            0            0    185417.86    200128.32    188716.69    11.192933   -13.709696   -1016.0583   0.12621944   0.12856909  0.096545296   0.35133382 
     480    7.9101324   -5116.1805   -5108.2704   -4725.1196    427.94019    190333.12    3225.2676    16.501113    16.501113    11.845115            0            0            0    185830.64    197266.13    187902.58    645.61785    463.93164    -385.3532   0.12347107   0.12865075  0.095766899   0.34788871 
     490    8.3011518   -5116.2066   -5107.9054   -4723.5661    449.09444    191078.86    3222.6453    16.498062    16.498062    11.839862            0            0            0    187217.88    195338.04    190680.65    518.35965    853.46484    478.54162   0.12190736   0.12917506  0.096119171   0.34720159 
     500    7.7686586   -5114.9559   -5107.1873   -4717.1658    420.28642    194244.76    3216.9887    16.489842    16.489842    11.830866            0            0            0    189393.03    197511.37    195829.87    -231.7223    798.50209    994.66063   0.12174127   0.13042326  0.096987378    0.3491519 
     510    7.7198364   -5113.9809   -5106.2611   -4710.6915    417.64513    197458.94    3209.6405    16.478122    16.478122    11.820639            0            0            0    192036.96     200295.4    200044.45   -480.61283    198.43009    502.64545   0.12259876   0.13169908  0.097527955    0.3518258 
     520    8.5924769   -5113.8755   -5105.2831   -4705.9564     464.8552    199816.23    3201.9013    16.464842    16.464842    11.811167            0            0            0    195559.99    201193.85    202694.85    27.410929   -674.05139   -691.91125   0.12418807   0.13228391  0.097598749   0.35407073 
     530    8.9398819   -5113.3294   -5104.3895    -4700.295     483.6499     202656.2    3194.7245    16.451611    16.451611    11.803657            0            0            0     200742.5    201939.87    205286.23    140.06739   -1048.1371   -1208.4234   0.12631039   0.13258096  0.097637317   0.35652866 
     540    8.2352188   -5111.9476   -5103.7124   -4694.1462    445.52745    205763.23    3189.0888    16.440256    16.440256    11.799116            0            0            0    205614.69    204135.45    207539.54   -513.01992   -353.43611   -567.85259   0.12832193   0.13327068  0.097793666   0.35938628 
     550    7.5257015   -5110.8907    -5103.365   -4690.2612    407.14238    207744.11    3185.9634      16.4328      16.4328    11.798251            0            0            0    209290.54    206281.02    207660.78   -783.73749    568.07909    493.24428   0.12952174    0.1341241  0.097870523   0.36151636 
     560    7.5753004   -5110.9831   -5103.4078   -4690.6008     409.8257    207602.81    3185.8419     16.43068     16.43068    11.800846            0            0            0    211271.07    205647.85     205889.5   -183.99784    1221.0771    959.78946   0.12968467    0.1342048  0.097817007   0.36170648 
     570    8.0073537   -5111.8217   -5103.8144   -4694.0087    433.19989    205923.29    3188.4741     16.43393     16.43393    11.805925            0            0            0    211569.43    202218.06    203982.38     414.4166    1258.6752    734.93189    0.1291869   0.13300582  0.097601222   0.35979395 
     580    8.2092552   -5112.6974   -5104.4882   -4698.7904    444.12281    203564.74    3193.0844    16.441263    16.441263    11.812452            0            0            0    210317.98    198499.02    201877.23   -81.023482    541.64123    -225.6279   0.12864875    0.1308307  0.096931085   0.35641054 
     590    8.0249426   -5113.3243   -5105.2993   -4704.1126    434.15145    200948.44    3198.6911    16.450881    16.450881    11.819361            0            0            0    208240.75    195422.83    199181.75   -1002.8995   -399.73992   -723.72898   0.12823501   0.12812621  0.095745197   0.35210642 
     600    7.6018446   -5113.7125   -5106.1106   -4708.5998    411.26174    198759.38     3204.289    16.461024    16.461024    11.825459            0            0            0    205710.43    193347.05    197220.67   -1137.1456    -1156.205    -672.0058   0.12765712   0.12513134  0.094478456   0.34726691 
     610    7.0943799    -5113.906   -5106.8116   -4711.9136    383.80777    197158.33    3209.0767    16.470207    16.470207    11.829924            0            0            0    204106.41    191022.86    196345.72   -637.09037   -1085.3276   -51.311837   0.12664762   0.12189269  0.093511128   0.34205144 
     620    6.8833903   -5114.2117   -5107.3283   -4714.5697    372.39318    195881.16    3212.5019    16.477245    16.477245    11.832437            0            0            0    203409.86    188474.72    195758.92   -82.049063   -302.35345    510.79202   0.12492897   0.11870762  0.092847233   0.33648382 
     630    6.8575102   -5114.4751   -5107.6176   -4716.0122    370.99306    195204.04    3214.1798    16.481275    16.481275    11.832829            0            0            0    203360.39    187036.51    195215.21     336.4964    684.28457    236.87138   0.12255946   0.11632011  0.092556653   0.33143621 
     640    6.6391319   -5114.3045   -5107.6654   -4715.1263    359.17874    195680.44    3214.0004     16.48205     16.48205    11.831055            0            0            0    203439.89     187676.2    195925.21    382.03295    1211.6272   -477.41368   0.12008962   0.11530859  0.092849615   0.32824783 
     650    6.7591042   -5114.2627   -5107.5036    -4713.715    365.66927     196411.3    3212.2327    16.479958    16.479958     11.82755            0            0            0    202753.87    189425.55    197054.48    255.83212    952.72909   -1147.1603   0.11815068   0.11552564  0.093506501   0.32718282 
     660     7.194748   -5114.3756   -5107.1809   -4712.6932    389.23771    196943.77    3209.2358    16.475506    16.475506    11.822902            0            0            0     202737.7    190390.99    197702.61    92.122118    340.77837   -1616.8926   0.11733396   0.11633478  0.094052364   0.32772111 
     670    7.4750271   -5114.2163   -5106.7412   -4710.2658    404.40088    198177.61    3205.3249      16.4692      16.4692    11.817539            0            0            0    203690.98    191842.88    198998.98   -106.29549   -287.72012   -1291.2013   0.11768504   0.11729773    0.0941718   0.32915457 
     680      7.71917   -5113.9705   -5106.2513   -4706.7111    417.60908    199978.28    3201.0175    16.461945    16.461945    11.812064            0            0            0    204683.54    194984.33    200266.97   -118.28176   -828.94601    -429.5652   0.11861686   0.11820363  0.093708291   0.33052878 
     690    8.1007252   -5113.9007      -5105.8   -4703.8247    438.25131    201451.55     3196.974    16.455054    16.455054    11.807025            0            0            0    205185.84     198461.8    200707.01    -3.339057    -919.4092    62.280769   0.11963872   0.11881503   0.09285611   0.33130986 
     700    8.1999913   -5113.6614   -5105.4614   -4702.0071    443.62163    202399.39    3193.7098     16.44972     16.44972     11.80262            0            0            0    205461.28    200670.46    201066.45      107.929   -689.51681     -64.3282   0.12083776   0.11898918  0.092241253   0.33206819 
     710    7.8848271   -5113.1609   -5105.2761   -4699.8262    426.57117    203538.24    3191.5492    16.446641    16.446641    11.799052            0            0            0    205943.01    201733.73    202937.98    201.27505   -54.277205   -524.43522   0.12249978   0.11892971  0.092115754   0.33354524 
     720    7.7359346   -5113.0136   -5105.2776   -4699.4684    418.51605    203766.37    3190.8011    16.446122    16.446122    11.797032            0            0            0     204814.3    202005.28    204479.55    285.61773     816.2665   -696.37127   0.12463524   0.11915928  0.092067163   0.33586168 
     730     7.652041   -5113.1197   -5105.4676   -4700.5164    413.97738    203292.11    3191.4828    16.447789    16.447789    11.797159            0            0            0    202266.63    202391.98    205217.73    228.78847    1256.8747   -264.65888   0.12717027   0.12021456  0.092098459   0.33948329 
     740    6.9933883   -5112.8007   -5105.8073   -4700.9309     378.3441    203134.75    3193.3653    16.450874    16.450874    11.799691            0            0            0    200355.31    202891.52    206157.41    105.99042    1332.4403   -215.56119   0.12987442   0.12226717  0.092679225   0.34482082 
     750    6.3470298   -5112.6067   -5106.2597   -4702.6035    343.37594    202337.76     3196.282    16.454792    16.454792    11.804846            0            0            0    197949.08    203410.01    205654.19    -319.0191    826.90771   -769.81114   0.13218122   0.12486024   0.09373357   0.35077503 
     760    6.4065675   -5113.1804   -5106.7739   -4706.3381    346.59694    200497.92    3199.8776    16.458924    16.458924    11.812192            0            0            0    196026.66       203223    202244.09   -700.26815     465.5643    -1261.083   0.13376712   0.12721054  0.094689668   0.35566733 
     770    6.9342233   -5114.1973   -5107.2631   -4711.1806    375.14326    198097.33    3203.4455      16.4626      16.4626    11.820082            0            0            0    194374.42    202872.19    197045.39    -375.6333    296.25438   -1044.3056   0.13432798   0.12874318  0.095552073   0.35862323 
     780    7.3221758   -5114.9523   -5107.6301   -4714.6112    396.13159     196400.8    3206.1259    16.465181    16.465181    11.826263            0            0            0    192259.56     203109.3    193833.52    235.56763    210.45279   -664.22908   0.13357117   0.12928149  0.096906127   0.35975878 
     790    7.0775888   -5114.8948   -5107.8172   -4714.8036    382.89937    196321.94    3207.3704    16.466177    16.466177    11.829423            0            0            0    190854.28    203998.39    194113.15     291.5971   -48.704336   -523.77959   0.13200465    0.1289516  0.098807742   0.35976399 
     800    6.3584855   -5114.1813   -5107.8228   -4713.3442     343.9957    197063.99     3207.204    16.465518    16.465518    11.829756            0            0            0    190917.53    204570.14    195704.29   -76.822338   -273.61075   -418.83377   0.13064023   0.12813238   0.10043988   0.35921249 
     810    5.8390906   -5113.5165   -5107.6774   -4711.2592     315.8963    198109.25    3205.9679    16.463491    16.463491    11.828109            0            0            0    192479.99     204606.9    197240.86   -260.85442     251.4367   -378.34558   0.12992711   0.12750506   0.10099934   0.35843151 
     820    6.1021906   -5113.5286   -5107.4264   -4710.2555    330.13008    198602.71    3204.0742    16.460625    16.460625    11.825238            0            0            0    193403.83    204750.93    197653.38   -321.95706    1057.5057   -466.38363   0.12964526   0.12777827   0.10050146     0.357925 
     830    6.8716085   -5113.9709   -5107.0992   -4709.3932    371.75578    199013.86    3201.7631    16.457309    16.457309    11.821472            0            0            0    193341.33    205372.81    198327.42    -365.0617    1473.6373   -578.19604   0.12969906   0.12914527  0.099628382   0.35847271 
     840    7.3626146    -5114.088   -5106.7254   -4708.0025    398.31934    199681.42    3199.2184    16.453775    16.453775    11.817151            0            0            0    193947.76    205890.13    199206.35   -273.92857      1292.86   -458.96844   0.13018982   0.13122448  0.098998309   0.36041261 
     850    7.4367466   -5113.7865   -5106.3498   -4705.5303     402.3299    200888.38    3196.7186    16.450424    16.450424    11.812728            0            0            0    195315.54    206829.41    200520.19   -142.46343    683.74013    38.673981   0.13078552   0.13356417  0.098694874   0.36304456 
     860    7.3606387   -5113.3908   -5106.0302   -4703.0214    398.21244    202113.81    3194.6917    16.447949    16.447949    11.808792            0            0            0     196141.7    208328.05    201871.68     91.30335   -40.320896    325.24595   0.13086956   0.13561628  0.098434574   0.36492041 
     870    7.3039655   -5113.1218   -5105.8179   -4701.5799    395.14641    202803.03     3193.545    16.447017    16.447017    11.805891            0            0            0    196954.58    209073.21    202381.28    86.327127   -711.62072    321.04957   0.13027133   0.13652331  0.097979451   0.36477409 
     880    7.4329553   -5113.1721   -5105.7391   -4701.1544    402.12479    202980.33     3193.492    16.448052    16.448052    11.804209            0            0            0    198817.19    208105.99    202017.82   -229.34542   -1031.3121   -155.44089   0.12921062    0.1357637  0.097386888   0.36236121 
     890    7.7376758   -5113.5324   -5105.7948   -4702.2192    418.61025    202407.95    3194.5348    16.451207    16.451207    11.803536            0            0            0    200174.89    205729.85    201319.09   -348.09672   -552.21083   -1069.5805   0.12794278   0.13362085  0.096914221   0.35847786 
     900    7.9353063   -5113.8907   -5105.9553   -4704.3441     429.3021    201304.42    3196.4134    16.456043    16.456043    11.803536            0            0            0    199902.88    202933.08     201077.3   -93.196252    394.94634   -1201.2884   0.12689223   0.13110338  0.096603875   0.35459949 
     910    7.7428006   -5113.9154   -5106.1726   -4705.9185     418.8875    200480.22    3198.7076    16.461584    16.461584    11.804057            0            0            0    199236.54    201050.94    201153.19    329.28444      1046.55   -281.47838   0.12662602   0.12938735  0.096120424   0.35213379 
     920    7.4785019   -5113.8824   -5106.4039   -4707.2231    404.58887    199794.51    3201.0792    16.466994    16.466994    11.805049            0            0            0    199921.76    198985.44    200476.34    427.28899    1317.9168    818.15388   0.12720207   0.12889501  0.095175143   0.35127222 
     930     7.255381   -5113.8664    -5106.611   -4708.5145    392.51797    199115.81    3203.2656     16.47181     16.47181    11.806204            0            0            0    201578.83    196376.12    199392.47    53.200142     1053.345    1309.1791   0.12772521   0.12931684  0.094072381   0.35111443 
     940    6.8523913   -5113.6134    -5106.761     -4708.89    370.71613    198892.61    3205.0443    16.475787    16.475787    11.807058            0            0            0    203130.18    194632.87    198914.76   -277.60761    333.11685    687.25579   0.12689474   0.12997639  0.093393942   0.35026508 
     950    6.8403947   -5113.6758   -5106.8354   -4709.9576    370.06711    198317.25    3206.3183    16.478805    16.478805    11.807425            0            0            0    202508.68    193153.73    199289.35   -146.93345   -773.62817   -629.19727    0.1241066   0.13006717  0.093335386   0.34750916 
     960    7.2873968   -5114.0907   -5106.8033   -4711.2094    394.25004    197639.57    3206.9044    16.480276    16.480276    11.807476            0            0            0    201486.93    191574.11    199857.67    15.606375   -1626.0756   -1549.3081   0.12043596   0.12913638  0.093736447   0.34330878 
     970    7.3864359   -5114.0314   -5106.6449   -4710.9552    399.60808    197705.63    3206.6097    16.479537    16.479537    11.807449            0            0            0    203159.24    190014.75    199942.88   -248.22514    -1393.151   -1657.1902   0.11778535   0.12738965  0.094353659   0.33952866 
     980    7.0172981   -5113.3966   -5106.3793   -4708.9965    379.63762    198619.89    3205.5068    16.476744    16.476744    11.807391            0            0            0    206573.36    189673.83    199612.48   -1025.2613   -459.55564   -1260.0401   0.11717299   0.12530882  0.094912884    0.3373947 
     990     7.077503   -5113.1226   -5106.0451   -4707.5294    382.89473    199284.06    3203.9316    16.472855    16.472855    11.807161            0            0            0    208613.58    190071.82    199166.79   -1335.0003    403.93487   -517.69846   0.11845471   0.12305501  0.095304958   0.33681467 
    1000    7.8364461    -5113.503   -5105.6665     -4707.15    423.95374     199395.8    3202.1427     16.46865     16.46865    11.806596            0            0            0    208337.22    190392.33    199457.83   -744.34257    1512.1998    353.97052   0.12096767   0.12091606  0.095827331   0.33771107 
Loop time of 9.96416 on 1 procs for 1000 steps with 144 atoms

Performance: 17.342 ns/day, 1.384 hours/ns, 100.360 timesteps/s
81.8% CPU use with 1 MPI tasks x no OpenMP threads

MPI task timing breakdown:
Section |  min time  |  avg time  |  max time  |%varavg| %total
---------------------------------------------------------------
Pair    | 9.9008     | 9.9008     | 9.9008     |   0.0 | 99.36
Neigh   | 0.022286   | 0.022286   | 0.022286   |   0.0 |  0.22
Comm    | 0.012777   | 0.012777   | 0.012777   |   0.0 |  0.13
Output  | 0.007741   | 0.007741   | 0.007741   |   0.0 |  0.08
Modify  | 0.016482   | 0.016482   | 0.016482   |   0.0 |  0.17
Other   |            | 0.004112   |            |       |  0.04

Nlocal:    144 ave 144 max 144 min
Histogram: 1 0 0 0 0 0 0 0 0 0
Nghost:    1570 ave 1570 max 1570 min
Histogram: 1 0 0 0 0 0 0 0 0 0
Neighs:    0 ave 0 max 0 min
Histogram: 1 0 0 0 0 0 0 0 0 0

Total # of neighbors = 0
Ave neighs/atom = 0
Neighbor list builds = 22
Dangerous builds = 2
write_data      out.lmp

Please see the log.cite file for references relevant to this simulation

Total wall time: 0:00:11
