
144 atoms
1 atom types
0 16.46425559 xlo xhi
0 16.46425559 ylo yhi
0 11.81720243 zlo zhi
0.00000000 0.00000000 0.00000000 xy xz yz

Atoms # atomic

1 1 0.01902690 16.25412490 11.71979778
2 1 0.07648690 16.19622490 2.91824778
3 1 16.37272490 16.26832490 5.88370778
4 1 16.35112490 16.43962490 8.76853778
5 1 16.37412490 5.45137490 0.17710378
6 1 0.22796790 5.42064490 3.05639778
7 1 0.09663690 5.34898490 5.94132778
8 1 16.36242490 5.49278490 8.96466778
9 1 16.40652490 11.00202490 11.55189778
10 1 16.38992490 10.85092490 2.65640778
11 1 0.08217290 10.85202490 5.61458778
12 1 0.15893690 11.12032490 8.56993778
13 1 5.50476490 0.13379590 11.62039778
14 1 5.52806490 0.01080990 2.74131778
15 1 5.52687490 16.45022490 5.64676778
16 1 5.51770490 16.40372490 8.75702778
17 1 5.41863490 5.47436490 11.77289778
18 1 5.61705490 5.43137490 3.11861778
19 1 5.52585490 5.29197490 5.97669778
20 1 5.47689490 5.39581490 8.96935778
21 1 5.54159490 11.12752490 0.06752778
22 1 5.50007490 11.00482490 3.04274778
23 1 5.45608490 10.99002490 5.99100778
24 1 5.48656490 10.86352490 8.86783778
25 1 11.06632490 16.27742490 0.05337878
26 1 11.04162490 16.41932490 3.00865778
27 1 10.89672490 16.37692490 5.93709778
28 1 11.03842490 16.45402490 8.97036778
29 1 10.94322490 5.43711490 0.09654078
30 1 11.27542490 5.47432490 2.98368778
31 1 11.10832490 5.46159490 5.87610778
32 1 10.93402490 5.55481490 8.91167778
33 1 10.88782490 11.12562490 11.58789778
34 1 10.84452490 10.95272490 2.79761778
35 1 11.03652490 10.99622490 5.77165778
36 1 11.23472490 10.91522490 8.76939778
37 1 2.65157490 2.69026490 1.43250778
38 1 2.63277490 2.76602490 4.20448778
39 1 2.73732490 2.80493490 7.24576778
40 1 2.61385490 2.62523490 10.36889778
41 1 2.65659490 8.30628490 1.49109778
42 1 2.79112490 8.24023490 4.48830778
43 1 2.75074490 8.39880490 7.36678778
44 1 2.67868490 8.31277490 10.29879778
45 1 2.71949490 13.81342490 1.46731778
46 1 2.53827490 13.82772490 4.42056778
47 1 2.78208490 13.96772490 7.37663778
48 1 2.65204490 13.76282490 10.27069778
49 1 8.34689490 3.03227490 1.35449778
50 1 8.16882490 2.77351490 4.16151778
51 1 8.24188490 2.76387490 7.14945778
52 1 8.20443490 2.66228490 10.17889778
53 1 8.30592490 8.25668490 1.28100778
54 1 8.02105490 8.33873490 4.40637778
55 1 8.21386490 8.16172490 7.41969778
56 1 8.12854490 8.12304490 10.24759778
57 1 8.37074490 13.53142490 1.34394778
58 1 8.24546490 13.89432490 4.29114778
59 1 8.13585490 13.72612490 7.41642778
60 1 8.24282490 13.70042490 10.26219778
61 1 13.72112490 2.72554490 1.53076778
62 1 13.78062490 2.81726490 4.44834778
63 1 13.84762490 2.97654490 7.51369778
64 1 13.66592490 2.74078490 10.29789778
65 1 13.78022490 8.34954490 1.60317778
66 1 13.53202490 8.31199490 4.41160778
67 1 13.84502490 8.29679490 7.49672778
68 1 13.43732490 8.19773490 10.42029778
69 1 13.86322490 13.87942490 1.62894778
70 1 13.65032490 13.86312490 4.48618778
71 1 13.55032490 13.74842490 7.36414778
72 1 13.77072490 13.70672490 10.49459778
73 1 2.76698490 0.12077590 2.33245778
74 1 2.73754490 0.09707290 5.32866778
75 1 2.74796490 0.06815990 8.21245778
76 1 2.79259490 16.42262490 11.08789778
77 1 2.87990490 5.52979490 2.10449778
78 1 2.74801490 5.49122490 5.08505778
79 1 2.76368490 5.55297490 8.12247778
80 1 2.60167490 5.62115490 11.09469778
81 1 2.79140490 11.13112490 2.14215778
82 1 2.91234490 11.01832490 5.12416778
83 1 2.84579490 11.14252490 8.03769778
84 1 2.80259490 11.08002490 11.13449778
85 1 8.27683490 0.03830990 2.14720778
86 1 8.34603490 0.07513790 5.21499778
87 1 8.21275490 16.46352490 8.15217778
88 1 8.32475490 0.10515490 11.16139778
89 1 8.44246490 5.62131490 2.43891778
90 1 8.32922490 5.67549490 5.38004778
91 1 8.13600490 5.38311490 8.19574778
92 1 8.22567490 5.43201490 11.24569778
93 1 8.15598490 10.88382490 2.20445778
94 1 8.21679490 11.13342490 5.18917778
95 1 8.23822490 10.96682490 7.97671778
96 1 8.23251490 10.88362490 10.97779778
97 1 13.85262490 0.07429590 2.29509778
98 1 13.55572490 0.06408790 5.14159778
99 1 13.76412490 0.06983890 8.01537778
100 1 13.77542490 0.06853590 11.03919778
101 1 13.91152490 5.48589490 2.31242778
102 1 13.87142490 5.61824490 5.29030778
103 1 13.59872490 5.53960490 8.34316778
104 1 13.75342490 5.54332490 11.27219778
105 1 13.54232490 11.04002490 2.35136778
106 1 13.85212490 11.00932490 5.24437778
107 1 13.86292490 10.95582490 8.30902778
108 1 13.66082490 10.92652490 11.24669778
109 1 16.35282490 2.58618490 0.61478778
110 1 16.47242490 2.61852490 3.40651778
111 1 0.08288290 2.49542490 6.34999778
112 1 0.01646290 2.81893490 9.51779778
113 1 0.07499190 8.18169490 0.62618778
114 1 16.38712490 8.10533490 3.66715778
115 1 16.46432490 8.06674490 6.53513778
116 1 16.40802490 8.29384490 9.46659778
117 1 16.44202490 13.53042490 0.91719778
118 1 16.34802490 13.37442490 3.86836778
119 1 0.00944490 13.63432490 6.64610778
120 1 0.02727190 13.73662490 9.59089778
121 1 5.43740490 2.78559490 0.94515778
122 1 5.46668490 2.67131490 3.83168778
123 1 5.48149490 2.63931490 6.72985778
124 1 5.40726490 2.75225490 9.55919778
125 1 5.42289490 8.23858490 0.71633778
126 1 5.39307490 8.29113490 3.61134778
127 1 5.46506490 8.08690490 6.59713778
128 1 5.33484490 8.02315490 9.65479778
129 1 5.51775490 13.94742490 0.88166778
130 1 5.42140490 13.72042490 3.81757778
131 1 5.54754490 13.74512490 6.70180778
132 1 5.44376490 13.66562490 9.94419778
133 1 11.02132490 2.66650490 0.58924778
134 1 11.07802490 2.75458490 3.61246778
135 1 11.13592490 2.69950490 6.57542778
136 1 10.72502490 2.84250490 9.44620778
137 1 11.07692490 8.15061490 0.79534778
138 1 10.80222490 8.28784490 3.60851778
139 1 10.97682490 8.27656490 6.68656778
140 1 10.86462490 8.16209490 9.56489778
141 1 11.28482490 13.56702490 0.94205778
142 1 10.99102490 13.75462490 3.75522778
143 1 10.71022490 13.68642490 6.74188778
144 1 10.98892490 13.73702490 9.71079778
