LAMMPS data file via write_data, version 3 Mar 2020, timestep = 200000

144 atoms
1 atom types

0.0000000000000000e+00 1.6464591800000001e+01 xlo xhi
0.0000000000000000e+00 1.6464591800000001e+01 ylo yhi
0.0000000000000000e+00 1.1809825249999999e+01 zlo zhi
0.0000000000000000e+00 0.0000000000000000e+00 0.0000000000000000e+00 xy xz yz

Masses

1 118.71

Atoms # atomic

1 1 7.2076179511112781e-02 1.3008921182934249e-01 1.6225932043303085e-02 1 0 1
2 1 1.6317973217261986e+01 7.3069311430731948e-02 3.0470162077533156e+00 0 0 0
3 1 1.6219162475031073e+01 1.6398018921199448e+01 6.0112715537673616e+00 0 -1 0
4 1 1.6426502986429107e+01 1.9831713603628445e-01 8.9438747470012636e+00 -1 0 0
5 1 3.8503032252726305e-02 5.4529621643457666e+00 2.5392542449307592e-01 0 0 1
6 1 1.6261807111199246e+01 5.5585979523826268e+00 3.0858260763786238e+00 0 0 0
7 1 1.6353146383370643e+01 5.3414616032353575e+00 6.2210688758983759e+00 -1 0 0
8 1 1.1031052876102795e-01 5.6423910920922946e+00 9.0161787570673155e+00 1 0 0
9 1 1.1898161382107755e-01 1.0972697263180580e+01 1.2492282405508086e-01 1 0 0
10 1 6.8201080568184497e-02 1.1070157482175484e+01 2.9539551148976733e+00 0 0 0
11 1 1.6343317693859703e+01 1.0895341353958212e+01 5.8668893361663068e+00 -1 0 0
12 1 1.6327722176878613e+01 1.1125619245162273e+01 8.9961232104222564e+00 0 0 0
13 1 5.5018679650759914e+00 2.2363676614229747e-01 1.1809221633812959e+01 0 1 0
14 1 5.4780058417692592e+00 1.6437936670635914e+01 2.9841329380032637e+00 0 0 0
15 1 5.3164933167944817e+00 1.6372412701864597e+01 5.9165775478904212e+00 0 -1 0
16 1 5.4198145195035226e+00 1.6450517806082754e+01 8.7185559765083820e+00 0 0 0
17 1 5.6650615782015672e+00 5.6513656534008883e+00 3.7597356937048805e-02 0 0 1
18 1 5.3422291851595949e+00 5.4724958624810514e+00 3.1903671544021446e+00 0 0 0
19 1 5.4349774472877810e+00 5.3975935860754491e+00 6.1544612655942501e+00 0 0 0
20 1 5.6542795725361401e+00 5.5244900680643783e+00 9.0482979679467110e+00 0 0 0
21 1 5.3743367945526286e+00 1.1114449191988182e+01 1.1741063235904145e+01 0 0 -1
22 1 5.5401819825704175e+00 1.1136601386884683e+01 2.9264386522216745e+00 0 0 0
23 1 5.3193644077040405e+00 1.0903002034080234e+01 5.8433541520654737e+00 0 0 0
24 1 5.2877917390477407e+00 1.0915333898438687e+01 8.7781722019660293e+00 0 0 0
25 1 1.1045270911950317e+01 3.1615267687226306e-02 1.1629070670838697e+01 0 1 -1
26 1 1.0851659496323954e+01 7.9853411713759787e-02 2.8341779655044230e+00 0 1 0
27 1 1.0788995133292831e+01 2.9331253529263912e-02 5.8411168921321028e+00 0 0 0
28 1 1.0981159458580441e+01 1.6262266849708709e+01 8.6563559270792467e+00 0 -1 0
29 1 1.1060558303489119e+01 5.6301850470231196e+00 1.1759318911725030e+01 0 0 -1
30 1 1.0937386353430316e+01 5.5163363358885977e+00 2.8907694928108825e+00 0 0 0
31 1 1.1070293008435847e+01 5.5024783264108237e+00 5.8832897298310227e+00 0 0 0
32 1 1.0833213534493831e+01 5.4810845625721640e+00 8.7253117886508189e+00 0 0 0
33 1 1.0831031295287810e+01 1.0971544826421331e+01 1.1800361222317635e+01 0 0 0
34 1 1.0997491713687062e+01 1.0927451356483060e+01 2.8715792350855613e+00 0 0 0
35 1 1.0838829090749995e+01 1.1024675423694129e+01 5.8977610858671898e+00 0 0 0
36 1 1.0905355325653410e+01 1.0920981522281346e+01 8.8877052668854368e+00 0 0 0
37 1 2.8511101977719413e+00 2.8512849190312823e+00 1.7204499950818515e+00 0 0 0
38 1 2.8208973483205169e+00 2.7332168229923792e+00 4.6848176284042315e+00 0 0 0
39 1 2.7847732830968055e+00 2.8506767763373353e+00 7.3954980654284670e+00 0 0 0
40 1 2.7706250877663274e+00 2.7411990919222422e+00 1.0443933569660352e+01 0 0 0
41 1 2.7286708414077627e+00 8.3936771995876001e+00 1.7625339148165986e+00 0 0 0
42 1 2.8452382835201155e+00 8.3635413222275243e+00 4.5611462659764719e+00 0 0 0
43 1 2.9036667809225336e+00 8.4205129262642622e+00 7.5202570535735029e+00 0 0 0
44 1 2.6664189283935182e+00 8.1528904807200693e+00 1.0313045003681260e+01 0 0 0
45 1 3.1685561058894374e+00 1.4014571840831113e+01 1.4439251602134919e+00 0 0 0
46 1 2.8620839233299895e+00 1.3782131927000828e+01 4.2898154615889341e+00 0 0 0
47 1 2.9075077381910601e+00 1.3831071627936977e+01 7.2017466949751272e+00 0 0 0
48 1 2.8187451305098130e+00 1.3760585295340080e+01 1.0199703303484386e+01 0 0 0
49 1 8.2383423286671906e+00 2.7254807584374454e+00 1.3379530938292841e+00 0 0 0
50 1 8.2341274997381966e+00 2.7618573561234814e+00 4.2465932168638725e+00 0 0 0
51 1 8.2057004411481937e+00 2.7797449414026807e+00 7.2497164672670245e+00 0 0 0
52 1 8.3170459067476639e+00 2.7863569473417340e+00 1.0178607862662190e+01 0 0 0
53 1 8.2958449364995239e+00 8.1203427825171879e+00 1.4268603154763064e+00 0 0 0
54 1 8.2167218844124097e+00 8.1515213614002970e+00 4.4108713148979346e+00 0 0 0
55 1 8.5419135587907284e+00 8.1915185073528054e+00 7.3290644909566600e+00 0 0 0
56 1 8.2415442098444327e+00 8.1995399598676695e+00 1.0206354111003098e+01 0 0 0
57 1 8.5039882018489443e+00 1.3889823886321802e+01 1.3771139808833106e+00 0 0 0
58 1 8.3921877869312240e+00 1.3831783058421919e+01 4.2355953164938818e+00 0 0 0
59 1 8.5583995511702966e+00 1.3751919032394376e+01 7.2011070023632637e+00 0 0 0
60 1 8.2814808304890235e+00 1.3515142606985096e+01 1.0306425283939033e+01 0 0 0
61 1 1.3722701373836978e+01 2.7679344249840931e+00 1.4056198227544534e+00 0 0 0
62 1 1.3760789464838972e+01 2.7338008084229113e+00 4.4583012679417928e+00 0 0 0
63 1 1.3798372624878059e+01 2.6838686762934829e+00 7.3105716194322641e+00 0 0 0
64 1 1.3824393489261608e+01 2.5894590678220570e+00 1.0220084831242465e+01 0 0 0
65 1 1.3721637474194042e+01 8.4195695681310347e+00 1.4656607459612043e+00 0 0 0
66 1 1.3808173766003518e+01 8.3477154645492995e+00 4.3878458938787599e+00 0 0 0
67 1 1.3998859512060593e+01 8.1980990147160888e+00 7.2965252494755131e+00 0 0 0
68 1 1.3851341629288321e+01 8.1401929735970491e+00 1.0204299402456069e+01 0 0 0
69 1 1.4074741268047948e+01 1.3823708164426309e+01 1.5114126698427999e+00 0 0 0
70 1 1.3705339066079706e+01 1.3745687953340102e+01 4.3981356340953814e+00 0 0 0
71 1 1.4013933444790469e+01 1.3793422723630361e+01 7.5146830940211871e+00 0 0 0
72 1 1.3907020315793069e+01 1.3515471442276642e+01 1.0405688906023951e+01 0 0 0
73 1 2.7289119626080534e+00 1.4657722137545456e-01 2.3386040774224730e+00 0 0 0
74 1 2.4432573788071354e+00 5.9757984570301022e-04 5.2520498559234783e+00 0 0 0
75 1 2.6548494785321903e+00 8.2527987967826899e-02 8.0624275800083200e+00 0 1 0
76 1 2.7836675472900314e+00 2.9549163931609754e-02 1.1151688050775444e+01 0 0 0
77 1 2.5993564021650855e+00 5.6205636848489924e+00 2.2649956485649620e+00 0 0 0
78 1 2.5925632886855241e+00 5.4428045894887278e+00 5.1840125881174677e+00 0 0 0
79 1 2.9416565150108962e+00 5.6033183472366490e+00 8.1206298290128078e+00 0 0 0
80 1 2.7835788776049895e+00 5.5660752233102064e+00 1.1196953983499853e+01 0 0 0
81 1 2.7835231936866642e+00 1.1160330298205842e+01 2.1199698501888000e+00 0 0 0
82 1 2.6001938779858520e+00 1.1139208258931786e+01 5.1002144668535534e+00 0 0 0
83 1 2.5165982141946741e+00 1.1097994012537967e+01 8.0525370577650666e+00 0 0 0
84 1 2.6867458864981124e+00 1.0996267434553458e+01 1.1011156952068085e+01 0 0 0
85 1 8.1707158961992228e+00 1.6458191252259947e+01 2.2478045751660942e+00 0 0 0
86 1 8.1388243544180519e+00 1.4734995409313639e-01 5.1218498058097630e+00 0 1 0
87 1 8.1258253337615649e+00 7.7106042056796761e-02 8.1246733972571246e+00 0 1 0
88 1 8.2957337636393653e+00 1.5820285033402021e-02 1.0994182465174488e+01 0 0 0
89 1 8.0724203422190701e+00 5.3773769639554532e+00 2.2897502113477048e+00 0 0 0
90 1 8.2023568605742483e+00 5.4627117024850600e+00 5.1052032984206646e+00 0 0 0
91 1 8.1406884914892377e+00 5.4516605092295869e+00 8.0079877482176229e+00 0 0 0
92 1 8.3572532585715020e+00 5.4311548865995301e+00 1.1007374942999505e+01 0 0 0
93 1 8.2619976312007921e+00 1.0963505022105174e+01 2.1087423554804889e+00 0 0 0
94 1 8.0599405346595017e+00 1.1015335160987329e+01 5.0314976756397938e+00 0 0 0
95 1 8.0776404146383172e+00 1.1029439707858177e+01 8.0827272224312647e+00 0 0 0
96 1 8.0305514065109413e+00 1.0868358425861395e+01 1.0879931592722954e+01 0 0 0
97 1 1.3527671340102614e+01 6.4413459635106210e-02 2.1590612428947553e+00 0 0 0
98 1 1.3552313526014325e+01 5.6911016462472132e-02 5.1911274281342141e+00 0 1 0
99 1 1.3628896851798610e+01 1.6379214431137335e+01 8.1269424256733753e+00 0 0 0
100 1 1.3843473564938481e+01 1.6270224227001851e+01 1.1094170557207530e+01 0 0 0
101 1 1.3583132945072359e+01 5.4791314660491617e+00 2.0652573142444925e+00 0 0 0
102 1 1.3736045176031324e+01 5.6372321229456324e+00 4.9866787454187280e+00 0 0 0
103 1 1.3668415567552096e+01 5.4183693820048671e+00 7.9904772330938041e+00 0 0 0
104 1 1.3834825550515840e+01 5.4490006255707000e+00 1.1036453874821536e+01 0 0 0
105 1 1.3750902095049209e+01 1.1190788711842393e+01 2.3542952799550187e+00 0 0 0
106 1 1.3627427025823726e+01 1.0982963060331610e+01 5.2694308079989982e+00 0 0 0
107 1 1.3689256476583083e+01 1.1077833382904505e+01 8.2721186456784537e+00 0 0 0
108 1 1.3822202261981925e+01 1.0880586701155666e+01 1.1219787938081058e+01 0 0 0
109 1 9.9172407992965644e-02 2.6054644978254489e+00 1.0372899471079031e+00 0 0 0
110 1 6.6282520000072037e-02 2.8025979179244946e+00 3.8716158595378367e+00 0 0 0
111 1 2.2706015472228471e-02 2.6649601671525049e+00 6.7581229860960192e+00 1 0 0
112 1 1.4346424920553186e-01 2.9182588301393357e+00 9.7469568701616005e+00 1 0 0
113 1 8.9777708935700529e-02 8.2411418997382864e+00 6.6793216010929501e-01 0 0 0
114 1 9.5270154008235158e-02 8.4399002960533611e+00 3.7193343170004995e+00 0 0 0
115 1 3.2326056173052120e-01 8.2730536290512759e+00 6.5428059997861672e+00 1 0 0
116 1 4.5336325426283207e-02 8.3804318218843648e+00 9.5831071974413113e+00 0 0 0
117 1 2.2818519368430806e-01 1.3873456451796502e+01 5.9549205326604282e-01 0 0 0
118 1 1.8690644088835293e-01 1.3749702230742134e+01 3.5257804480445896e+00 1 0 0
119 1 1.1039002873829568e-01 1.3722584174978971e+01 6.4621284514949755e+00 1 0 0
120 1 1.9698883409904547e-01 1.3920972286971033e+01 9.3864549237479480e+00 0 0 0
121 1 5.4564590175051997e+00 2.8454494979695371e+00 6.5199228424605860e-01 0 0 0
122 1 5.4812533603949189e+00 2.7366712266537441e+00 3.4612513916373198e+00 0 0 0
123 1 5.4658518338269078e+00 2.5749283782763284e+00 6.5570146791723332e+00 0 0 0
124 1 5.5193436004996590e+00 2.6900456973861995e+00 9.5786523971371054e+00 0 0 0
125 1 5.5899982952992753e+00 8.3859169504950071e+00 8.1475907252108415e-01 0 0 0
126 1 5.6169805442029972e+00 8.3608170359428975e+00 3.7078380332155714e+00 0 0 0
127 1 5.7184328481284128e+00 8.2622541230108784e+00 6.8236876598591438e+00 0 0 0
128 1 5.5077249057263966e+00 8.3185403523889541e+00 9.7575684501454862e+00 0 0 0
129 1 5.8218623782108621e+00 1.3823638086847804e+01 7.5314846128384805e-01 0 0 0
130 1 5.5674740841361530e+00 1.3781835795898086e+01 3.8267052356966085e+00 0 0 0
131 1 5.6903715159003001e+00 1.3557387926637462e+01 6.7246473561468729e+00 0 0 0
132 1 5.5346395355276305e+00 1.3759749522030997e+01 9.6281087200983979e+00 0 0 0
133 1 1.1126197198370793e+01 2.7925460785670166e+00 5.9564361204544958e-01 0 0 0
134 1 1.1043243191066390e+01 2.8018538084909519e+00 3.6067452042229555e+00 0 0 0
135 1 1.1011060598945635e+01 2.7038330671410269e+00 6.5778315310786626e+00 0 0 0
136 1 1.1042966368044731e+01 2.7585395495796834e+00 9.4880853481490668e+00 0 0 0
137 1 1.1002769389946158e+01 8.2989611731346749e+00 7.8545058815133062e-01 0 0 0
138 1 1.0998665882688242e+01 8.2049193738629906e+00 3.7011898013357833e+00 0 0 0
139 1 1.1228321827049765e+01 8.3349904946723274e+00 6.5671841221820673e+00 0 0 0
140 1 1.1000088302736584e+01 8.1672314461803541e+00 9.5866822708399457e+00 0 0 0
141 1 1.1278477436241191e+01 1.3744184291644885e+01 7.0802449695516712e-01 0 0 0
142 1 1.1086183119964176e+01 1.3779808545135381e+01 3.5612626207712266e+00 0 0 0
143 1 1.1165186555586786e+01 1.3684701045806023e+01 6.6442777422573700e+00 0 0 0
144 1 1.1142036888489237e+01 1.3729966648750178e+01 9.6085933406167854e+00 0 0 0

Velocities

1 -2.3659162834374889e-01 3.3829606174727722e-01 -2.1575436625735898e+00
2 -3.8683753030643446e+00 1.1108516602859755e+00 1.4950614128273154e+00
3 8.4833224529765039e-01 1.4107892501957018e+00 3.4473367376309499e-01
4 -2.5930715053216988e+00 2.3096421656036346e+00 -1.8284037091443726e+00
5 2.5995954803865007e+00 1.8138923928881190e+00 1.4880780887797325e+00
6 -4.5686392592988539e-01 -2.1540409405901353e+00 -3.9752976328918316e-01
7 3.4231675278644869e-01 4.1039822863456116e-01 -1.6480907850570750e+00
8 -1.9448393475187348e-01 -1.9636382958155665e-01 -1.3473900388542599e+00
9 -2.2146312111644945e-01 1.5998263786241713e+00 -4.4562603941725559e-01
10 1.4617319411300755e+00 1.9081632710594270e+00 -1.8458920293624883e+00
11 3.3317019989270946e-01 -4.7043482601758008e-01 5.5802322202088306e-01
12 1.9942251194395444e+00 -8.2278876543486001e-01 -2.7502874448863208e+00
13 -3.7065151106101951e-01 2.3979010639623186e+00 5.7164768180438008e-01
14 1.9435792091115358e+00 -1.9864279264662836e+00 -1.2798226576532046e+00
15 -1.8373853533670162e-01 -5.3944051995875475e-01 7.6131994658742363e-01
16 -1.1119649909121325e+00 2.1229870656185268e+00 -2.5680965004934211e+00
17 2.2361878433946476e+00 2.1655785781976680e+00 3.4680307877379253e+00
18 5.6760163436575162e-01 -1.6373384301739293e+00 -2.0989566810060958e-01
19 -3.6634424590381500e+00 -2.5343451965849568e+00 -1.4627652224043713e-01
20 1.1394487982024566e+00 -2.6174023304254873e-01 3.8076689380346473e-01
21 2.8097830145346223e+00 -4.2801518039216618e-01 1.1496370520992034e+00
22 4.3110615662641081e+00 -1.0788021756912616e+00 1.8480875643067305e+00
23 -7.2382587834277723e-01 -2.3978891949483139e-01 2.0229565161692747e-01
24 -3.7784574558592254e+00 -2.4543258040764897e+00 2.5866388515817967e-01
25 -1.2448031128597379e+00 1.1010101244627735e+00 4.2998149690362525e-01
26 -6.9488313707903371e-01 -1.6682810301003883e+00 2.6265603914228537e+00
27 -8.1002693957631572e-02 -2.2137444943827873e+00 -1.4498784098593753e+00
28 -1.8991666566402903e+00 -1.7759066764716894e-01 2.3741794122729414e+00
29 -1.3984093741481780e+00 -2.7988239570823448e-01 -5.0212603283720902e-01
30 8.0039473608612799e-01 1.4768788868648406e+00 5.7469685651670777e-01
31 7.9308881051852498e-01 5.2117642881077397e-01 -2.2052710625967054e+00
32 1.9711240220809449e+00 -6.4100948377700195e-01 2.5700924402336878e-01
33 2.2584727262333364e+00 -1.1319418259557383e+00 -6.4383822308971561e-01
34 -9.4068096324324391e-01 2.6046161620742372e+00 2.3134078134343401e+00
35 -5.2967733952870271e+00 -2.3471338081982358e+00 2.7564158120566412e-01
36 -2.6595897127677142e+00 2.8215232409948134e+00 -1.3969477127044247e-01
37 -9.4142445209659209e-01 -3.2096284123330450e+00 5.7347172558759985e-01
38 2.8304584869418838e+00 -3.9103344540322743e-01 1.4992393360131498e-01
39 -1.2100832689976952e+00 -6.4287069249847117e-01 1.4499505419860348e-01
40 1.6493945572993256e+00 6.5649937234704928e-02 5.6304200229946255e-01
41 2.4703463103115023e-01 2.2404024527160202e+00 -4.0570188466523473e-02
42 1.5309774853831451e-01 3.2886340475985559e-01 -1.1633764315258215e+00
43 -1.6615665288813863e+00 -1.1629594554671410e+00 6.9201270686803384e-01
44 2.5899771076619467e+00 -3.8955384326791875e-01 -1.1301056995846549e-01
45 -1.9960852714358062e+00 2.9153575444591625e-02 1.4850066933358046e+00
46 -4.1762572466728470e-01 -1.8766306116382450e+00 2.5666816176944245e+00
47 2.6243543928318234e+00 -2.1930462985421793e+00 -4.0325289736799047e-01
48 -5.6489751695365154e-01 -9.8247145033866912e-01 1.2384754066601376e+00
49 3.5836451335989161e-01 -1.3836696975267924e+00 -1.0125921339999093e+00
50 -9.2286579913978317e-01 1.1696362454745151e+00 -1.0735030162751218e+00
51 -8.1550936927393769e-01 -2.0856865780251312e+00 -4.2744519632336386e+00
52 2.3417105842029677e+00 -8.6368886528801245e-02 -1.5539184902817071e+00
53 4.4199123349415883e+00 2.0361517322736500e+00 -1.3270469450000515e+00
54 -3.1066413577846310e+00 -6.0217350512692969e-01 -1.1809531640451685e+00
55 1.2837354032532315e+00 -2.9162180242333463e-01 2.5167094892234898e-01
56 3.8997456537612116e+00 2.4404855099657765e+00 3.4282247653240400e-01
57 1.0261811208738432e+00 2.2918198543568478e+00 -1.5663912524409063e+00
58 1.1620126834355655e+00 -1.2839731954661322e+00 1.9503532067557303e+00
59 -7.0704837377279106e-01 1.1623392795644780e+00 3.3459060168560790e+00
60 -4.1404123362828060e-01 -7.2665350338360490e-01 -3.1891930037149246e-01
61 -3.3589213221081399e-01 2.7174477920273232e+00 -2.3914922776128065e+00
62 -3.0224132232544871e+00 -1.1779783239907275e+00 -2.0025826251896457e+00
63 -8.6528817191799345e-01 -9.4917862786261387e-01 -3.6664031600873339e+00
64 1.4064125958762423e+00 -8.9705860481844690e-01 2.1656259199900272e+00
65 9.2454198844545321e-01 -1.0226763228733948e+00 1.4790328619344904e+00
66 -5.6414593510795230e-01 -3.3779147314494438e+00 1.8160618940486686e+00
67 3.9043999095138524e+00 5.6364561169245864e-01 -1.5589034464446603e+00
68 9.8110085436816374e-01 -9.0081817173653622e-01 1.7022218436390357e+00
69 -3.8165533943885727e-01 8.7061700522281282e-01 -7.0936519463026959e-01
70 3.9193364225186145e-01 3.7027980901507713e+00 -1.9127774212541158e+00
71 -3.8298951730879800e+00 -4.2026828748967804e-01 1.9121449750788746e-03
72 1.8980473747336470e+00 -8.7847796790659938e-01 2.4183504059797882e+00
73 9.6062337868875114e-01 5.1468806218773577e-01 -5.6315314816074380e-01
74 7.2374604276055188e-01 -1.6160398052831269e+00 9.8679364648150392e-01
75 1.1201461935930364e+00 -6.7995698825779249e-01 -3.3739177319058111e-01
76 -8.9481674570205105e-01 -1.7677252817948438e-01 -7.7671678992922033e-01
77 1.3324919141142124e+00 1.6855280979832103e+00 1.0609463174342268e+00
78 -2.6831609742161318e+00 -5.6092966842987126e-02 3.2211324535032582e-01
79 3.8494145852682946e+00 -5.3272095936063357e-01 -3.2004926294244174e-01
80 -7.2824131883059373e-01 2.8145684614438671e-01 -1.9707815589832365e+00
81 5.5688574998242502e-01 -3.1898240343692512e+00 9.6542949082096285e-01
82 1.0417756351399277e+00 1.2321857684195150e+00 -7.2663061122590522e-01
83 1.5917171789987778e+00 -5.0259150986593837e-01 -2.1259599693482532e+00
84 -1.3079942796285944e+00 3.1518797869276276e+00 1.4836170060297540e+00
85 -7.7722663796155778e-01 2.1587206078417031e-02 1.3641232571652153e+00
86 -1.8195270914889923e+00 -1.1939707996022204e+00 -1.2020982656009438e+00
87 1.2351435166985852e-01 1.9058906069132500e+00 6.9358310949720259e-01
88 -1.3050757654601048e+00 2.2147420375195606e+00 9.8428658193193108e-01
89 2.9953773146116069e-01 2.1623803788573253e+00 2.4228300736750521e+00
90 -3.5599487908459473e-02 -1.9302007880847598e+00 6.3105553008535387e-01
91 -3.6881163850454346e-01 2.2219394272556947e+00 -1.0907521623999787e+00
92 2.2049382316829427e-01 2.6066228218902476e+00 -7.3100234437365552e-01
93 3.3392623403576677e-01 1.9876214018527716e-01 -1.7450638446712876e+00
94 -2.2235113792602914e+00 -3.0832968573232575e+00 -6.3492878307416523e-01
95 3.5811354779617584e+00 -1.4673992710647195e+00 2.0608832514450186e+00
96 4.8740506767528202e-01 -2.4813732483506517e+00 3.2005611218439327e+00
97 -1.7520540715698103e+00 8.4956716713579439e-01 1.1048349557296040e+00
98 -7.2567407646118109e-01 1.4213741379123284e+00 -4.2972253778576480e-01
99 6.1768234888011631e-01 -5.2650100348621232e-01 1.0699988177907582e+00
100 -2.2763204695339496e+00 -1.6670268162709290e-01 1.3342772329043873e+00
101 -2.9915456612187141e-01 1.3930004830702665e+00 1.4873966408514385e+00
102 -1.4199516599646258e+00 4.6411430735600175e-02 2.1561091549140992e+00
103 -2.5534381131117176e+00 -3.5178396887942167e+00 -2.5865849780984016e+00
104 -1.9038961163142250e+00 -1.5257886736816559e+00 2.5944592578563036e-01
105 2.2719960343229935e+00 8.3529065014506532e-01 -1.4214257542128843e+00
106 -3.1727243426942668e+00 1.7141411078950111e+00 1.7188987009313241e+00
107 -2.7099207916341279e+00 2.2472237039841372e+00 1.3518630378327003e+00
108 2.1440339618527449e+00 -1.5661760158020051e+00 1.3956578780538986e-01
109 -1.3214989653160434e+00 -2.2179394007110926e+00 -1.4237128333946318e+00
110 -5.3869737306730803e-01 4.7080216706369005e-01 1.6604912485935888e+00
111 -1.9806872077651605e+00 1.4147530313364169e+00 -9.3092397220727274e-01
112 1.8334444360886619e+00 7.3764580224854914e-01 2.0974617145960504e+00
113 4.1105768833827827e-02 2.0507906032583176e+00 8.7497348614292203e-01
114 -9.0250946614292438e-01 -2.8934267553259501e+00 1.7193012897483309e+00
115 1.2390665590273207e+00 2.9264723560109007e+00 -1.1172093233940577e+00
116 -2.4092266991589770e-01 1.7626136353797466e+00 1.2036393047812062e+00
117 3.1547595189327293e-01 3.6595922738554698e-01 -2.3996035885678419e+00
118 1.1039347168335305e+00 -1.6909651751398364e-01 -1.9383241031737910e+00
119 -2.5805013500422120e+00 -1.3159721071758135e+00 1.5741161533253458e+00
120 -2.3228170196013442e+00 -2.1867185397056894e+00 1.7121627384520086e+00
121 -4.2415175693508378e-01 1.9206979461912304e+00 -5.0859112120287919e-01
122 -1.3538094674857981e+00 -2.5652616641801944e+00 4.8463005751270966e-01
123 9.6134636253955005e-02 -9.3886240036296553e-01 4.1794449483812296e-01
124 5.6943816454876683e-01 1.6716215298811790e+00 4.0919045499764044e+00
125 4.1964412444255139e-01 -5.5913579084058074e-01 2.0973302622927117e-01
126 -3.7185574595093429e-01 -4.1884368048127918e-01 -1.5474960045606638e+00
127 1.4033398092321232e+00 -2.2194219273228732e+00 -2.0281683421024064e+00
128 -1.8653776264454687e+00 1.3045236673403666e+00 -2.1127359393503800e+00
129 -8.7669717829889493e-01 -1.8867821111460501e+00 1.7887413554543521e-01
130 2.6025466589222783e+00 -1.3101244467425183e-01 9.3522483663202149e-01
131 -1.1430865442911022e+00 1.7424224594231361e+00 -1.4433140466352929e+00
132 7.5274889682851054e-01 6.7743863689447159e-01 -1.8089153643500178e+00
133 -1.9991010596652288e+00 7.0893354873424275e-01 -3.6734169215728292e+00
134 5.0848828816801273e-01 4.3451356930313445e-01 3.1264360551610952e+00
135 1.9674889647217048e-02 2.2556320833901269e-01 -6.1343119626069198e-01
136 1.7083165141650247e+00 -1.1774295325370228e+00 -3.3839574090979263e+00
137 8.9332382696680257e-01 -1.6077519377087224e-02 1.9451454561898462e+00
138 3.2220072533901964e+00 6.9553425045035777e-01 -1.7060500834403460e+00
139 1.2386089178442670e+00 -1.4415046114537877e+00 -4.0288513386092033e+00
140 1.2193174827473250e+00 2.0699330318134672e+00 -2.0654011424290406e+00
141 -3.5566002967489880e+00 -2.8708045887647828e+00 2.2446220135910941e+00
142 1.7178774465416744e+00 2.0641101484069679e+00 2.2500539189873803e-01
143 1.6790406737793988e+00 7.1481074481314599e-01 -1.5483583152436311e+00
144 -5.3185898802535436e-01 1.0213334044984337e+00 3.0102282728178631e+00
