ITEM: TIMESTEP
800000
ITEM: NUMBER OF ATOMS
144
ITEM: BOX BOUNDS xy xz yz pp pp pp
6.5843722362951240e-01 1.7089562776369494e+01 0.0000000000000000e+00
6.5843722362951240e-01 1.7089562776369494e+01 0.0000000000000000e+00
5.4290723440112387e-01 1.2365092765598664e+01 0.0000000000000000e+00
ITEM: ATOMS id type x y z vx vy vz 
1 1 0.836109 0.873879 12.344 -3.78657 -1.24116 0.527245 
2 1 16.9936 16.9468 3.43904 -1.49197 -1.65191 -1.69882 
3 1 17.0646 0.676403 6.29318 -2.48592 -0.944346 -2.23376 
4 1 17.0915 16.9228 9.29336 1.66058 0.283934 -1.50874 
5 1 17.0075 6.14959 0.595463 -1.09696 -0.620236 -0.671159 
6 1 17.0182 6.06997 3.41524 -1.13097 0.347532 2.29147 
7 1 16.9711 6.14269 6.47333 0.92021 1.26882 -1.69366 
8 1 17.0689 6.14303 9.44444 -1.96407 0.0968067 -0.574158 
9 1 0.68131 11.5855 12.2392 0.944629 1.47962 3.34576 
10 1 0.713506 11.5969 3.49922 2.23883 4.95417 -1.17782 
11 1 0.666486 11.6267 6.4203 -0.738793 -1.53176 -0.838589 
12 1 0.706972 11.618 9.32861 4.81165 4.38944 1.46872 
13 1 6.31675 16.9924 12.3013 2.04241 -0.205804 -0.120513 
14 1 6.18165 17.0355 3.33074 -1.68405 -1.3931 -0.194254 
15 1 6.11107 0.664044 6.29989 0.0172246 0.23615 -1.19314 
16 1 6.13134 17.0565 9.2005 -0.106729 0.754087 -4.12588 
17 1 6.009 5.98758 12.2326 1.86657 -0.289404 0.816305 
18 1 6.02715 6.04656 3.36582 0.623489 1.11468 -2.99239 
19 1 6.11744 6.10947 6.29848 -0.0767084 -0.355787 -1.14874 
20 1 6.17905 6.18384 9.39152 -0.302947 -1.20157 -0.938582 
21 1 6.24181 11.468 12.2032 -0.280566 -1.52903 0.722632 
22 1 5.94477 11.5353 3.46373 0.0692519 -3.56613 3.2449 
23 1 6.16041 11.5595 6.46404 1.00634 1.70201 0.728493 
24 1 6.25234 11.5761 9.25277 -1.13364 1.23205 -0.223379 
25 1 11.7891 16.9239 0.851824 -2.22894 -1.92905 -2.7695 
26 1 11.5897 16.9498 3.66592 -0.452973 0.50154 1.95383 
27 1 11.625 17.0347 6.58337 -0.704344 -2.553 -2.78094 
28 1 11.6095 17.0631 9.52083 -0.00351661 0.801483 0.362776 
29 1 11.6211 6.00649 0.574275 4.18678 0.891917 -1.82831 
30 1 11.5728 6.12563 3.56616 -1.34592 0.288413 -0.653778 
31 1 11.4783 6.23292 6.53085 0.464332 -2.33684 -2.79943 
32 1 11.6066 6.21352 9.41972 -0.440432 1.26904 2.14182 
33 1 11.9113 11.4501 0.620273 1.45618 0.0898357 4.09921 
34 1 11.6903 11.6348 3.56816 -3.52206 0.76704 1.41762 
35 1 11.5043 11.678 6.46398 3.48694 -0.198855 -0.0898318 
36 1 11.6163 11.6322 9.3923 -0.995764 -0.31049 -0.245151 
37 1 3.46311 3.46635 1.98588 1.94673 2.69281 -3.56232 
38 1 3.45518 3.42797 5.05871 -1.12358 -2.00694 0.2989 
39 1 3.33617 3.39904 7.9294 -1.4541 2.52041 -2.61366 
40 1 3.30162 3.35318 10.8131 0.655078 -1.3949 1.43322 
41 1 3.35518 8.86392 1.937 -2.43783 -1.66273 -2.06605 
42 1 3.41548 8.91075 5.06966 0.734325 2.23196 -3.60088 
43 1 3.3483 8.76348 7.92964 0.130971 -3.42789 0.752906 
44 1 3.34629 8.76397 10.8624 -3.34442 -0.426243 1.18876 
45 1 3.42502 14.4506 1.94499 0.358423 1.84877 0.670395 
46 1 3.44788 14.3756 4.98667 0.400482 0.68534 -1.49329 
47 1 3.47584 14.3444 7.90108 -0.41267 1.7125 1.25652 
48 1 3.25079 14.3819 10.9454 0.0915668 1.72904 -1.91024 
49 1 8.89071 3.39143 2.18463 1.36249 -1.36945 -0.414198 
50 1 8.83193 3.38267 5.07234 -1.17246 -1.84652 0.910021 
51 1 9.00182 3.27272 8.25593 -1.26714 2.56814 -0.346356 
52 1 8.78952 3.28499 11.0273 2.77447 1.88661 -3.08248 
53 1 8.78427 8.91356 1.8482 -0.110192 1.33242 -1.68026 
54 1 8.76819 8.91141 4.94876 -1.43828 -2.95027 2.3164 
55 1 8.74986 8.79436 7.8677 -0.981909 2.27334 2.35056 
56 1 8.99594 8.97033 10.7159 1.0602 -1.54308 0.839149 
57 1 8.76017 14.3804 2.1052 -0.24927 0.38089 -0.172965 
58 1 8.98593 14.4654 5.04111 -0.477071 2.67323 -2.87902 
59 1 8.7607 14.3702 8.04252 2.15798 1.75841 1.19677 
60 1 8.88136 14.2136 10.9829 -1.76248 0.15866 0.935266 
61 1 14.2513 3.46121 2.17161 -1.07502 -0.419103 0.211807 
62 1 14.5244 3.43105 4.98742 0.539226 2.46464 2.40122 
63 1 14.3145 3.51279 7.98396 1.01399 0.519524 -2.62036 
64 1 14.2597 3.38262 11.1751 -0.74223 -1.17756 1.05382 
65 1 14.2574 9.00307 1.98265 -0.665815 1.79481 -0.728696 
66 1 14.3477 8.92499 4.85729 -3.01759 3.52843 -0.315034 
67 1 14.334 8.88427 7.83868 0.874759 -1.65087 -1.14472 
68 1 14.3503 9.01058 10.9135 0.468805 -2.65694 -1.08505 
69 1 14.3515 14.4024 2.09644 1.27984 2.0078 0.555084 
70 1 14.4017 14.4844 5.17797 1.78894 0.282246 0.691296 
71 1 14.202 14.6825 7.96012 -0.733041 -1.19498 0.813093 
72 1 14.2622 14.518 10.9868 0.0249599 -1.15619 0.78709 
73 1 3.30404 0.814617 2.61618 1.63949 -0.374173 0.504126 
74 1 3.35287 0.749055 5.51114 -1.86138 1.82673 3.17557 
75 1 3.49014 0.690801 8.52456 3.77942 2.10662 -0.697517 
76 1 3.69809 0.672056 11.569 -2.62902 -3.26713 -0.206252 
77 1 3.32856 6.15005 2.68493 -0.567751 5.52026 -2.38882 
78 1 3.31351 6.25781 5.887 -2.63895 3.47721 -2.74202 
79 1 3.41151 6.17289 8.71537 0.224212 0.974192 0.718011 
80 1 3.3401 6.10425 11.6464 1.45114 -0.71228 1.66922 
81 1 3.3901 11.6714 2.73569 -4.79069 -0.879673 -0.426754 
82 1 3.48486 11.7343 5.65939 -1.42484 -0.407698 2.97673 
83 1 3.46183 11.4986 8.58752 -2.82735 1.86081 1.22206 
84 1 3.31002 11.5334 11.5174 -0.775399 3.0326 -1.06165 
85 1 8.90943 17.0763 2.9098 -1.84833 1.29599 1.44688 
86 1 8.90261 0.758361 5.85102 -1.06425 -1.43958 2.55665 
87 1 8.97357 16.9821 8.81187 -0.262934 -0.948443 -0.492838 
88 1 9.0693 16.9266 11.7506 1.33004 -0.138505 2.54988 
89 1 8.73085 6.1216 2.73446 0.466563 3.36096 0.638009 
90 1 8.7997 6.06035 5.59395 0.969452 -1.68197 -0.0616824 
91 1 8.87446 6.09454 8.59134 0.178835 -1.95666 -1.82477 
92 1 8.80283 6.20607 11.569 0.0107322 -0.496653 -0.223824 
93 1 8.92841 11.5134 2.78513 0.925011 0.507205 1.1842 
94 1 8.77161 11.5641 5.58229 -2.39299 0.730894 -1.74458 
95 1 9.01344 11.5781 8.55959 0.0450084 2.33148 0.334832 
96 1 8.97745 11.5453 11.653 -0.893164 -0.155166 -0.606519 
97 1 14.2783 0.675092 2.79414 3.13432 -4.85634 -0.0721038 
98 1 14.3171 0.843419 5.82618 0.274329 3.81787 1.09387 
99 1 14.3063 0.850949 8.85877 -3.00252 0.244437 2.3974 
100 1 14.6208 0.716343 11.5857 1.1845 -3.03616 -2.08404 
101 1 14.4554 6.32429 2.6662 0.098492 -4.78244 -1.94982 
102 1 14.2957 6.17722 5.55291 -2.26 2.74741 -0.65142 
103 1 14.3245 6.33379 8.62053 1.86381 1.29912 1.21826 
104 1 14.2635 6.1994 11.5937 0.823326 -1.12295 -1.97831 
105 1 14.4398 11.651 2.66635 0.528409 1.29343 -0.293789 
106 1 14.3973 11.5457 5.58409 2.41212 -0.213524 1.12977 
107 1 14.2796 11.8044 8.48595 5.46195 0.248291 1.48557 
108 1 14.48 11.6994 11.4856 -0.999684 -0.302911 -2.15076 
109 1 17.0802 3.53503 1.32339 -2.04739 1.32933 -1.55399 
110 1 0.758758 3.27553 4.42055 1.06425 -1.41873 -0.552269 
111 1 0.69155 3.29744 7.30331 -2.07752 1.13187 2.3509 
112 1 16.8936 3.32079 10.2843 -1.72265 -1.3463 1.87703 
113 1 0.664099 8.85326 1.35865 0.34996 0.365306 0.231059 
114 1 0.74348 8.88582 4.16995 -0.211596 -2.75483 1.04858 
115 1 17.0997 8.90107 7.20027 4.28155 -0.361879 1.46788 
116 1 17.0107 8.77272 10.0645 -3.13337 -0.939168 -1.53044 
117 1 0.688154 14.4497 1.17716 -1.20342 -0.468468 -1.59955 
118 1 17.0564 14.3127 4.21014 0.264538 -1.01132 -0.413036 
119 1 17.0417 14.3688 7.20501 -0.043438 -2.15856 3.81064 
120 1 17.0297 14.2803 10.1875 2.00671 -0.671197 -0.447833 
121 1 6.26247 3.31745 1.29369 1.75848 0.658921 0.734286 
122 1 6.1127 3.30103 4.16871 0.425473 -0.592925 -0.335523 
123 1 6.2642 3.4139 7.26835 2.13368 -0.408078 -1.07945 
124 1 6.24498 3.36033 10.0964 -1.60293 -0.206631 1.3002 
125 1 6.11361 8.79345 1.20471 -0.309175 2.49522 1.47874 
126 1 6.06933 8.78625 4.16531 0.510983 -1.56242 -0.827442 
127 1 6.11283 8.86229 7.1728 -0.970605 0.157023 -1.68307 
128 1 6.18059 8.90336 10.0477 1.6977 -5.26331 0.182077 
129 1 6.05315 14.1972 1.281 3.7861 1.08997 3.7323 
130 1 6.29306 14.2753 4.22786 -0.031428 -2.44302 1.19453 
131 1 6.11095 14.4959 7.19417 -0.479999 -4.62765 -2.70662 
132 1 6.07694 14.382 10.1774 -0.552553 -0.185797 1.46779 
133 1 11.4751 3.25751 1.38544 -2.5844 0.745004 -1.61861 
134 1 11.7564 3.39445 4.1959 1.78731 -0.3193 1.68906 
135 1 11.6447 3.38858 7.24115 1.17324 1.48177 2.16095 
136 1 11.4664 3.31902 10.3355 0.922589 -3.11758 0.86542 
137 1 11.5946 8.68734 1.36277 0.789109 1.58962 2.08906 
138 1 11.7137 8.94824 4.25877 -0.256031 0.0480702 0.665698 
139 1 11.5207 9.05562 7.06449 0.79032 -3.01082 -0.173471 
140 1 11.7008 8.94247 10.1736 2.01208 2.31994 -0.927898 
141 1 11.4749 14.1501 1.41119 -0.0921567 -2.64674 0.992393 
142 1 11.7264 14.237 4.40099 0.901921 0.301261 -0.238588 
143 1 11.5149 14.4125 7.23487 -0.880933 -1.23813 -0.436325 
144 1 11.5945 14.3621 10.3171 -0.0379991 0.359856 0.575021 
ITEM: TIMESTEP
900000
ITEM: NUMBER OF ATOMS
144
ITEM: BOX BOUNDS xy xz yz pp pp pp
6.4743305134339479e-01 1.7100566948655981e+01 0.0000000000000000e+00
6.4743305134339479e-01 1.7100566948655981e+01 0.0000000000000000e+00
5.6739299319164616e-01 1.2340607006808057e+01 0.0000000000000000e+00
ITEM: ATOMS id type x y z vx vy vz 
1 1 0.703149 16.8885 12.1041 -1.45408 2.04082 -0.636217 
2 1 17.0746 0.856717 3.46938 1.39896 0.453119 0.320477 
3 1 17.1048 0.628671 6.37915 -0.28602 -0.160355 0.26248 
4 1 0.807249 0.718555 9.31685 0.665076 -1.12637 0.61048 
5 1 0.569632 6.1116 0.655824 -0.930748 -0.0470832 -0.791076 
6 1 17.0758 6.15423 3.41892 1.46738 -1.1049 -0.203742 
7 1 16.9876 6.17301 6.53233 2.28212 -1.89262 2.49625 
8 1 17.137 6.14266 9.51864 1.67822 1.33285 1.546 
9 1 17.0731 11.5051 12.3053 1.82413 3.20286 -0.437066 
10 1 0.699654 11.5141 3.42249 0.976661 2.34744 -2.14113 
11 1 0.697927 11.5515 6.40393 -3.11505 -0.747531 -0.179063 
12 1 0.61834 11.6388 9.3607 -0.643103 -0.752714 -0.403114 
13 1 6.27588 0.496447 0.524417 1.66407 -3.9224 -0.57183 
14 1 6.00934 0.719398 3.46237 0.360319 -1.44222 1.415 
15 1 6.12051 17.021 6.45169 -2.77969 1.01655 1.90917 
16 1 6.15326 0.722954 9.42267 1.1374 0.929237 2.78245 
17 1 6.22032 6.19094 0.571201 0.998778 -1.03148 -2.08735 
18 1 6.17209 6.19977 3.6641 -0.772553 -0.496599 -0.12828 
19 1 6.1321 6.0348 6.58065 0.282133 -4.44858 -1.84084 
20 1 6.04401 6.08608 9.36103 -0.409947 1.36084 0.294867 
21 1 6.10796 11.4768 0.593743 -2.65537 -1.45269 -0.602546 
22 1 6.12599 11.747 3.65323 0.297125 1.65236 0.59908 
23 1 6.25034 11.7373 6.59352 0.028467 -0.79319 -0.820229 
24 1 6.15085 11.5779 9.3753 3.63766 -1.77176 1.40291 
25 1 11.5755 17.0525 0.585612 1.73261 1.12725 -1.1322 
26 1 11.4745 17.0543 3.40117 -2.09614 1.23219 -2.76692 
27 1 11.651 16.9437 6.35711 -0.538139 -0.133941 3.33361 
28 1 11.6913 17.0351 9.18867 -1.28571 0.735974 -1.56521 
29 1 11.6653 6.22607 12.2714 0.978552 -1.751 0.213394 
30 1 11.5991 6.02857 3.24928 0.361234 -1.61885 0.211739 
31 1 11.5927 6.10208 6.3985 3.26184 -1.07047 -1.0436 
32 1 11.7448 5.99991 9.24946 1.01862 1.87295 -0.198105 
33 1 11.325 11.4713 12.1145 -2.35438 -0.229539 0.282755 
34 1 11.5762 11.6492 3.41318 -1.43182 0.748933 -0.513428 
35 1 11.6235 11.6465 6.24415 1.35513 0.0208233 0.321313 
36 1 11.6309 11.5549 9.30877 1.36897 1.44552 -1.33323 
37 1 3.48151 3.41028 2.09553 -2.83532 1.41129 0.138316 
38 1 3.41036 3.49705 4.98948 -4.0971 1.14724 -1.39536 
39 1 3.47966 3.44668 8.01869 1.9058 0.660529 0.838835 
40 1 3.15286 3.49116 10.7777 0.779366 -0.0522903 0.559782 
41 1 3.44696 8.8155 2.04422 1.33652 0.742549 -2.25968 
42 1 3.44432 8.78199 4.98555 -1.18536 -0.0888101 0.63226 
43 1 3.41831 8.9011 7.96511 -0.725307 2.42665 1.24163 
44 1 3.37584 8.78465 10.7861 -0.134393 0.706066 2.66193 
45 1 3.24769 14.2661 1.99598 -4.1864 -5.16196 1.09604 
46 1 3.40413 14.3323 4.88827 -1.17894 3.68885 1.05735 
47 1 3.30987 14.4565 7.90663 1.14497 -2.96264 2.6647 
48 1 3.63462 14.4911 10.8696 -3.76366 1.01885 -0.53544 
49 1 9.00601 3.46513 1.98887 0.174077 -0.818653 1.37475 
50 1 8.9522 3.40037 4.81573 1.77052 0.63844 -0.581166 
51 1 8.76697 3.33755 7.67636 2.83308 1.00522 -0.811952 
52 1 8.74142 3.465 10.6272 1.36407 0.0716346 1.19159 
53 1 8.90322 8.87569 2.03302 0.460091 -3.30799 -3.73969 
54 1 8.77489 8.95179 4.94603 1.91491 -0.536682 -0.814551 
55 1 8.72284 8.76977 7.94955 2.76468 -0.319587 2.16676 
56 1 8.87423 8.96492 10.8684 2.23982 0.00769982 -0.597236 
57 1 8.81387 14.49 2.06218 1.31775 -2.37954 -1.37982 
58 1 8.65934 14.3294 5.0336 2.98394 3.06581 1.39752 
59 1 8.91677 14.2779 7.99803 -0.516149 -1.28894 -1.52243 
60 1 8.98055 14.5238 11.0273 -2.75813 -0.160969 0.795096 
61 1 14.4293 3.44989 1.99179 3.23284 1.83943 -0.106058 
62 1 14.4418 3.47837 4.86279 1.72467 1.09562 -0.0901312 
63 1 14.3432 3.31627 7.76571 2.13225 -1.03659 0.49472 
64 1 14.2287 3.39736 10.8853 -0.564568 1.23687 -2.98184 
65 1 14.4794 8.80671 2.04135 0.0960921 -0.944938 1.40281 
66 1 14.23 8.79293 5.07328 1.43369 0.139033 2.61362 
67 1 14.3835 8.92489 8.01455 -1.77465 0.660958 -2.00069 
68 1 14.2534 8.95876 10.8158 1.90635 -1.3938 -0.100226 
69 1 14.3785 14.4398 2.01455 0.425724 0.616637 -2.25947 
70 1 14.3824 14.2396 5.05825 -3.3181 1.64597 -1.85316 
71 1 14.4988 14.3977 7.91748 -2.63191 0.580336 0.0825267 
72 1 14.4213 14.3706 10.8904 0.901853 0.863279 2.30908 
73 1 3.38512 17.0572 2.82568 -1.15589 1.36305 0.835659 
74 1 3.27562 0.836651 5.68206 2.10446 1.75332 2.25719 
75 1 3.50996 0.751479 8.60246 -0.528498 -0.924941 -1.41742 
76 1 3.63105 0.673371 11.7476 1.4985 -1.79414 -0.851531 
77 1 3.45084 6.10828 2.87919 -3.38662 2.07794 1.80335 
78 1 3.24828 6.10218 5.98381 -2.73556 -2.25189 -1.12136 
79 1 3.36953 6.1205 8.85961 1.57645 -0.0959519 -0.504907 
80 1 3.33662 6.05833 11.7107 -3.87724 2.92268 -0.809658 
81 1 3.46154 11.6478 2.74335 2.34941 -1.69646 2.38388 
82 1 3.47189 11.6489 5.80447 0.0541955 -2.67243 1.1261 
83 1 3.39047 11.5919 8.73817 -1.85239 -1.80671 -0.100449 
84 1 3.47247 11.557 11.6075 -0.175268 0.0261689 0.441932 
85 1 8.82535 0.754342 2.80636 1.99171 -1.59253 -0.59631 
86 1 8.85356 17.0051 5.62411 1.59445 0.674446 -2.15524 
87 1 8.90974 17.2183 8.62417 -0.648959 3.19748 1.43596 
88 1 8.90549 0.879361 11.5946 2.44962 -0.233893 -2.02577 
89 1 8.7973 6.15767 2.78085 -0.712235 1.20449 0.417492 
90 1 8.82458 6.07459 5.68087 -0.453376 0.128134 0.940523 
91 1 8.84496 5.97687 8.82962 -0.489044 -2.95611 0.754235 
92 1 8.8532 6.22924 11.6685 0.45083 0.749876 -1.34362 
93 1 8.83075 11.6685 2.80221 -0.898923 0.151851 -0.471319 
94 1 8.91043 11.5815 5.91226 -0.0474554 1.14685 0.562427 
95 1 8.92005 11.5924 8.7681 1.20077 1.3649 0.544733 
96 1 8.79478 11.7569 11.6387 0.0630521 -1.33733 -0.849201 
97 1 14.3619 16.9922 2.77704 -0.105518 0.958372 -1.19128 
98 1 14.2732 17.1036 5.58917 -2.72711 1.77425 0.142978 
99 1 14.5238 0.706577 8.71451 -1.94674 -1.0978 0.102161 
100 1 14.3854 0.695082 11.7128 -0.737587 -0.952756 -1.27693 
101 1 14.3746 6.0961 2.9365 0.386527 -0.0478012 0.77419 
102 1 14.3224 6.08971 5.78164 0.730117 2.32104 1.05005 
103 1 14.4597 6.21788 8.69562 0.615348 -0.155352 3.28049 
104 1 14.4243 6.19477 11.599 -1.15947 -0.644005 1.31717 
105 1 14.4606 11.6943 2.81402 -0.587734 0.388842 0.187007 
106 1 14.3671 11.6261 5.83527 1.01916 -1.26612 -0.317061 
107 1 14.4023 11.6864 8.78061 5.11642 0.253184 0.306597 
108 1 14.2453 11.5932 11.7603 3.16319 -0.968585 -1.66256 
109 1 0.747226 3.21314 1.26325 0.256845 2.06278 -0.563318 
110 1 0.675676 3.58962 4.29384 1.37571 -2.61164 0.428223 
111 1 0.616799 3.40849 7.17608 -2.29563 1.84105 -1.05737 
112 1 16.9039 3.36638 10.1764 -1.07979 0.265499 0.779861 
113 1 0.782225 8.92286 1.3284 0.608018 1.23181 0.980244 
114 1 16.9668 8.80551 4.27602 -0.282106 1.47351 -1.77405 
115 1 17.0483 8.8484 7.23794 -0.195371 2.15467 0.877552 
116 1 0.622113 8.94131 10.2102 -1.70261 -0.13945 -1.6367 
117 1 17.119 14.2632 1.2488 -0.384872 -1.2659 -1.44664 
118 1 17.1007 14.4424 4.15968 0.642023 0.30326 1.92335 
119 1 0.683739 14.4405 7.07277 -1.84629 0.264882 -3.03185 
120 1 0.96122 14.42 9.9876 -0.441255 -1.1054 2.36422 
121 1 6.11281 3.42449 1.43575 -0.425704 -2.37449 -1.26365 
122 1 6.16681 3.2717 4.34397 1.82818 -0.807637 -1.88675 
123 1 6.0256 3.29323 7.19283 -0.366035 0.386194 -2.65089 
124 1 5.98109 3.35296 10.2528 0.619784 -0.0522036 0.892196 
125 1 6.22281 8.85272 1.37989 -2.04817 0.0194998 -0.786432 
126 1 6.04912 8.9608 4.15157 -0.176824 3.65097 -2.52483 
127 1 6.12032 8.84297 7.16527 0.0259548 -0.8221 2.21234 
128 1 6.1399 8.88551 10.022 -2.76616 -2.31196 -0.500413 
129 1 5.91666 14.2965 1.43866 0.345114 -0.0308222 -1.10171 
130 1 6.05906 14.4343 4.20833 -0.873008 1.0712 1.44143 
131 1 6.05283 14.3771 7.11274 2.12177 -1.52403 -2.58854 
132 1 6.42897 14.397 9.9704 -1.95799 -2.23139 -0.963684 
133 1 11.7042 3.36836 1.24579 0.962797 1.37741 3.39815 
134 1 11.6138 3.21557 4.29637 1.4015 0.172872 0.877413 
135 1 11.6714 3.29416 7.19741 -2.24567 -0.376377 0.814542 
136 1 11.533 3.27156 10.1941 1.93226 0.742611 2.72162 
137 1 11.7721 8.98658 1.44802 -0.268403 -0.764633 1.6525 
138 1 11.5053 8.84874 4.26063 -0.57416 -0.617666 -1.17692 
139 1 11.4273 8.90663 7.15934 -1.09008 0.679058 1.76661 
140 1 11.6434 8.76557 10.0157 -2.25562 -4.43582 -0.621634 
141 1 11.5806 14.2393 1.35281 -2.53419 1.29788 0.333759 
142 1 11.453 14.3579 4.38569 0.435975 -2.17561 -0.484699 
143 1 11.614 14.2475 7.17339 -0.722217 3.86302 0.17618 
144 1 11.6567 14.3493 10.1397 -1.35814 0.485889 -1.84682 
ITEM: TIMESTEP
1000000
ITEM: NUMBER OF ATOMS
144
ITEM: BOX BOUNDS xy xz yz pp pp pp
6.1138943377126687e-01 1.7136610566228313e+01 0.0000000000000000e+00
6.1138943377126687e-01 1.7136610566228313e+01 0.0000000000000000e+00
5.5592740120240691e-01 1.2352072598796770e+01 0.0000000000000000e+00
ITEM: ATOMS id type x y z vx vy vz 
1 1 17.0335 0.647503 12.2572 -2.13663 3.34228 -1.16273 
2 1 17.0001 0.660023 3.54898 -0.908598 0.140436 -2.58512 
3 1 17.1083 0.699567 6.38378 -0.215953 -0.742355 -1.35034 
4 1 0.743215 0.724103 9.36723 -0.890666 2.27394 1.64666 
5 1 0.715228 6.0983 12.2631 0.995014 -2.32192 1.01329 
6 1 17.0737 6.1372 3.37931 1.59549 -2.84559 1.18305 
7 1 0.72751 6.15904 6.47201 -0.384603 0.45741 -0.879471 
8 1 16.9306 6.2619 9.47446 3.1535 -0.677037 -0.27025 
9 1 17.056 11.5919 0.707034 -1.79838 3.17617 1.67442 
10 1 0.710443 11.5943 3.56132 -0.683997 4.34544 1.33984 
11 1 0.770691 11.6327 6.53863 -1.42633 1.83113 0.238583 
12 1 17.0422 11.7762 9.5253 -3.57499 1.1856 -0.464613 
13 1 6.08984 16.8918 12.224 1.55473 -2.91236 0.718466 
14 1 6.13903 17.118 3.43443 0.211707 0.172277 -1.81973 
15 1 6.23673 0.693985 6.44749 -2.18548 -0.786661 -0.215382 
16 1 6.16517 17.0453 9.32118 -2.01188 -0.945664 -1.98487 
17 1 6.04084 5.97785 12.3274 -2.40982 2.30585 -0.101987 
18 1 6.20964 6.08258 3.47612 -1.50151 -0.995267 -0.698265 
19 1 6.20786 6.18584 6.44454 3.02281 0.0867585 -1.30802 
20 1 6.06895 6.20132 9.36377 2.28891 1.086 -2.02412 
21 1 6.03181 11.4531 0.62446 -1.94237 -0.708537 -2.48121 
22 1 6.20136 11.6656 3.53681 -0.218282 -1.78999 0.38319 
23 1 6.0548 11.6031 6.29745 -1.53287 1.68546 0.970743 
24 1 6.08727 11.5442 9.4065 3.01846 -4.00045 -0.310746 
25 1 11.6232 16.938 0.589604 0.0841777 -0.827702 -2.06068 
26 1 11.7013 16.9325 3.58349 0.385513 -0.881131 3.25315 
27 1 11.6644 0.664727 6.37576 1.0631 3.45005 -0.795887 
28 1 11.7482 0.710739 9.40885 1.80537 0.84799 1.60065 
29 1 11.6132 6.07032 0.61324 -4.60543 0.229965 -5.18587 
30 1 11.5354 5.98946 3.43084 0.904095 0.412899 3.48474 
31 1 11.5856 6.16644 6.5667 -2.2621 -1.05243 0.642531 
32 1 11.5089 6.35988 9.35204 -1.06212 -1.20093 1.99841 
33 1 11.6208 11.42 12.2762 0.827156 -1.67559 0.492178 
34 1 11.7174 11.5444 3.34922 -3.26022 2.8365 1.78047 
35 1 11.7719 11.5992 6.41566 0.0556993 0.17087 -3.07692 
36 1 11.4938 11.7674 9.33202 0.265959 -0.12043 0.581055 
37 1 3.5722 3.35227 1.98581 -1.21235 0.0212481 -0.00580021 
38 1 3.34366 3.30588 4.91511 -4.9843 0.530341 -0.0285847 
39 1 3.19236 3.4601 7.6852 -0.442545 -0.49899 1.47055 
40 1 3.35872 3.56004 10.8168 0.410785 1.32589 -0.351523 
41 1 3.37737 8.92013 1.96399 0.620774 0.408248 0.0809003 
42 1 3.40766 8.84755 5.0583 -1.09037 2.12327 -3.02978 
43 1 3.2822 8.7865 8.0276 1.73109 0.691874 -2.07501 
44 1 3.5204 9.0681 10.8549 0.862982 -3.2301 -0.546422 
45 1 3.61054 14.5201 1.91466 1.51727 1.09438 1.0144 
46 1 3.299 14.481 4.97388 0.605526 0.435614 -2.5764 
47 1 3.41809 14.24 7.84192 2.87924 -0.851886 -0.347743 
48 1 3.37406 14.5836 10.7934 -5.4977 -3.27831 -2.59155 
49 1 8.87856 3.43868 2.24293 0.632287 2.24187 -1.03894 
50 1 9.04457 3.2724 5.09065 -1.60879 4.4493 1.92306 
51 1 8.79405 3.30571 7.92847 0.886213 1.07806 1.39601 
52 1 8.81664 3.33831 10.9994 -0.231504 4.11165 1.91593 
53 1 8.86216 9.03873 2.16958 1.74813 -0.0883746 -0.0946474 
54 1 8.80195 8.88811 4.98867 0.886698 1.33477 1.58009 
55 1 8.71706 8.83229 8.07275 1.12581 -0.241908 -1.90459 
56 1 8.99958 8.94778 11.0379 -1.69216 0.216797 -3.84778 
57 1 9.18003 14.4625 1.9566 1.80041 0.76331 -1.35569 
58 1 8.86927 14.3689 4.8345 -0.756126 -0.230791 0.631464 
59 1 8.80246 14.2667 7.91791 0.74885 0.210369 -3.28129 
60 1 8.79541 14.3644 10.8828 0.928547 -0.786152 -0.333721 
61 1 14.3655 3.35368 2.09156 -1.38769 -2.32903 0.826437 
62 1 14.4244 3.43185 4.99939 1.66841 2.65336 -1.77254 
63 1 14.2171 3.13513 7.9083 -1.00109 0.81915 1.71407 
64 1 14.4432 3.3392 10.9849 -1.09678 -1.4797 -0.252854 
65 1 14.4381 8.80471 2.03741 0.44655 -1.91133 -0.675616 
66 1 14.412 8.87538 5.02501 2.74809 0.737601 -0.646383 
67 1 14.1756 8.61331 7.94051 2.44514 -0.582092 1.85172 
68 1 14.4262 8.8628 10.7822 1.21595 1.26306 -0.269893 
69 1 14.5528 14.3983 2.14919 1.7472 3.30365 -3.91944 
70 1 14.528 14.3646 4.89789 0.279397 -2.06077 -2.68385 
71 1 14.3654 14.2972 7.97851 0.76199 0.6867 1.0045 
72 1 14.181 14.3102 10.8513 0.964642 -0.433778 0.29698 
73 1 3.27124 0.802084 2.8388 -1.5968 -0.0254336 0.0188386 
74 1 3.43711 0.742119 5.74846 0.791863 0.739421 0.181406 
75 1 3.4402 17.0101 8.61374 0.0093129 -1.0679 2.08803 
76 1 3.37122 0.764388 11.693 0.511384 -3.28125 0.786066 
77 1 3.31561 6.22372 2.66169 -0.981008 -1.81281 0.155774 
78 1 3.38629 6.12549 5.63011 2.08868 0.747865 0.88666 
79 1 3.22578 6.01435 8.70558 -0.901372 -1.99597 2.10694 
80 1 3.38423 6.23535 11.5664 1.75064 0.0293046 -1.95728 
81 1 3.33059 11.5795 2.8051 3.58236 -2.05323 2.01081 
82 1 3.31477 11.7167 5.54547 -0.697405 2.38399 0.514333 
83 1 3.33935 11.5255 8.62456 2.16403 2.65063 1.30816 
84 1 3.24257 11.8504 11.7361 -2.13447 -2.45209 0.0473549 
85 1 8.86386 17.0975 2.61703 0.915661 1.1426 -1.47348 
86 1 8.90186 17.0103 5.56575 0.409824 -2.54331 2.68445 
87 1 9.02697 17.1494 8.75118 0.257846 3.12172 2.42465 
88 1 8.9467 0.633013 11.5439 -2.04227 1.989 -1.73549 
89 1 8.88582 6.24006 2.7275 -0.896962 -1.7077 0.812796 
90 1 8.99078 6.14862 5.81333 1.22574 -1.59823 0.439214 
91 1 8.77718 6.05762 8.7339 -3.01931 -0.0524622 0.965318 
92 1 8.85838 6.20573 11.593 -1.54099 2.29977 -2.76729 
93 1 8.86398 11.7542 2.8634 -2.27194 -1.87701 2.05009 
94 1 8.85131 11.6332 5.77553 -1.57121 2.9114 2.51292 
95 1 8.72489 11.5865 8.62212 -0.0259518 -0.207472 1.10352 
96 1 8.84073 11.6267 11.6609 -1.73352 -1.0198 1.18581 
97 1 14.4001 0.709425 2.57392 0.255513 -0.510225 0.00595594 
98 1 14.3395 17.0621 5.62773 -2.22152 -1.56796 0.992061 
99 1 14.5073 17.0366 8.67084 0.434642 1.7007 -1.30583 
100 1 14.325 17.0402 11.4548 1.33884 0.168705 -1.27644 
101 1 14.4306 6.11137 2.81239 0.372565 -0.935617 -2.27768 
102 1 14.5355 6.11948 5.70655 0.483694 1.07927 -0.438673 
103 1 14.2769 5.90993 8.66382 0.362821 0.781913 0.0819078 
104 1 14.3346 6.07853 11.7387 2.63228 -0.115547 0.237752 
105 1 14.4342 11.738 2.66849 -1.69828 3.26375 0.929241 
106 1 14.5566 11.6282 5.76028 -0.142246 -2.57483 0.713377 
107 1 14.3258 11.4945 8.54496 2.58156 -0.267743 3.16596 
108 1 14.2615 11.6955 11.4194 -1.53354 -1.30469 -1.35589 
109 1 0.619114 3.37796 1.48655 1.3878 -2.11806 1.53481 
110 1 0.690454 3.38332 4.41619 -4.11042 -2.7256 0.274346 
111 1 16.9514 3.41078 7.36542 3.06943 -2.81003 -2.07152 
112 1 17.1278 3.55475 10.5394 2.17945 0.143912 2.07732 
113 1 0.620535 8.82836 1.3223 1.06964 0.741616 0.972344 
114 1 0.646326 8.87729 4.22521 0.306902 -3.37353 -0.761567 
115 1 16.9341 8.90201 7.19341 -0.179021 -1.20754 3.02451 
116 1 0.858771 9.01745 10.0975 -2.32672 -1.12608 -3.09456 
117 1 0.808757 14.4979 1.18427 1.45849 -0.142815 1.89661 
118 1 17.0955 14.4436 4.25936 -0.678953 -0.3506 2.31958 
119 1 17.0619 14.3857 7.26757 -0.821642 1.33513 -0.777146 
120 1 0.630092 14.5339 10.1607 2.21891 -1.02193 -1.15031 
121 1 6.20175 3.10569 1.32175 1.43561 0.789498 -0.75221 
122 1 6.32707 3.2953 4.24797 0.0421546 0.25085 -3.51339 
123 1 5.99477 3.51856 7.21538 -0.0147563 -2.74923 1.19104 
124 1 6.08233 3.37081 10.1725 0.288838 0.334765 1.94723 
125 1 6.11905 8.62325 1.35815 0.994546 0.249289 0.92232 
126 1 6.06953 9.01275 4.2317 1.16341 0.710864 -1.43824 
127 1 6.01279 8.88815 7.19698 1.66728 -0.579233 2.05006 
128 1 6.18682 8.86569 10.2831 -0.368527 3.55019 0.27351 
129 1 6.34419 14.3255 1.31836 -1.35063 -1.01425 -1.45809 
130 1 6.0293 14.4639 4.18384 -1.25487 -2.07758 -1.60079 
131 1 6.11632 14.404 7.16531 0.647885 1.64759 -2.06341 
132 1 6.01285 14.295 10.2022 -1.18985 -1.5631 0.936111 
133 1 11.6996 3.36772 1.34221 -2.03804 0.70835 0.914848 
134 1 11.6096 3.19757 4.1308 -0.321407 -1.35335 -0.222488 
135 1 11.5201 3.39966 7.0704 0.594908 -2.11249 1.75741 
136 1 11.518 3.46801 10.0167 0.733187 -0.832952 -0.530065 
137 1 11.6457 8.73675 1.36848 0.749901 0.332935 2.40155 
138 1 11.5711 8.67032 4.36192 -1.22865 1.89236 0.011068 
139 1 11.3968 8.79078 7.12918 2.21739 -3.52054 -1.7998 
140 1 11.714 8.97289 10.0789 2.59464 2.29876 0.159874 
141 1 11.8185 14.1859 1.3 -2.11666 2.40645 1.28698 
142 1 11.7507 14.3011 4.37072 0.46387 -0.976025 -1.55782 
143 1 11.456 14.4549 7.23269 2.54981 -0.797724 3.12488 
144 1 11.4192 14.5277 10.1024 -1.87439 0.971057 1.59239 
