ITEM: TIMESTEP
1000000
ITEM: NUMBER OF ATOMS
144
ITEM: BOX BOUNDS xy xz yz pp pp pp
6.1138943377126687e-01 1.7136610566228313e+01 0.0000000000000000e+00
6.1138943377126687e-01 1.7136610566228313e+01 0.0000000000000000e+00
5.5592740120240691e-01 1.2352072598796770e+01 0.0000000000000000e+00
ITEM: ATOMS id type x y z vx vy vz 
1 1 17.0335 0.647503 12.2572 -2.13663 3.34228 -1.16273 
2 1 17.0001 0.660023 3.54898 -0.908598 0.140436 -2.58512 
3 1 17.1083 0.699567 6.38378 -0.215953 -0.742355 -1.35034 
4 1 0.743215 0.724103 9.36723 -0.890666 2.27394 1.64666 
5 1 0.715228 6.0983 12.2631 0.995014 -2.32192 1.01329 
6 1 17.0737 6.1372 3.37931 1.59549 -2.84559 1.18305 
7 1 0.72751 6.15904 6.47201 -0.384603 0.45741 -0.879471 
8 1 16.9306 6.2619 9.47446 3.1535 -0.677037 -0.27025 
9 1 17.056 11.5919 0.707034 -1.79838 3.17617 1.67442 
10 1 0.710443 11.5943 3.56132 -0.683997 4.34544 1.33984 
11 1 0.770691 11.6327 6.53863 -1.42633 1.83113 0.238583 
12 1 17.0422 11.7762 9.5253 -3.57499 1.1856 -0.464613 
13 1 6.08984 16.8918 12.224 1.55473 -2.91236 0.718466 
14 1 6.13903 17.118 3.43443 0.211707 0.172277 -1.81973 
15 1 6.23673 0.693985 6.44749 -2.18548 -0.786661 -0.215382 
16 1 6.16517 17.0453 9.32118 -2.01188 -0.945664 -1.98487 
17 1 6.04084 5.97785 12.3274 -2.40982 2.30585 -0.101987 
18 1 6.20964 6.08258 3.47612 -1.50151 -0.995267 -0.698265 
19 1 6.20786 6.18584 6.44454 3.02281 0.0867585 -1.30802 
20 1 6.06895 6.20132 9.36377 2.28891 1.086 -2.02412 
21 1 6.03181 11.4531 0.62446 -1.94237 -0.708537 -2.48121 
22 1 6.20136 11.6656 3.53681 -0.218282 -1.78999 0.38319 
23 1 6.0548 11.6031 6.29745 -1.53287 1.68546 0.970743 
24 1 6.08727 11.5442 9.4065 3.01846 -4.00045 -0.310746 
25 1 11.6232 16.938 0.589604 0.0841777 -0.827702 -2.06068 
26 1 11.7013 16.9325 3.58349 0.385513 -0.881131 3.25315 
27 1 11.6644 0.664727 6.37576 1.0631 3.45005 -0.795887 
28 1 11.7482 0.710739 9.40885 1.80537 0.84799 1.60065 
29 1 11.6132 6.07032 0.61324 -4.60543 0.229965 -5.18587 
30 1 11.5354 5.98946 3.43084 0.904095 0.412899 3.48474 
31 1 11.5856 6.16644 6.5667 -2.2621 -1.05243 0.642531 
32 1 11.5089 6.35988 9.35204 -1.06212 -1.20093 1.99841 
33 1 11.6208 11.42 12.2762 0.827156 -1.67559 0.492178 
34 1 11.7174 11.5444 3.34922 -3.26022 2.8365 1.78047 
35 1 11.7719 11.5992 6.41566 0.0556993 0.17087 -3.07692 
36 1 11.4938 11.7674 9.33202 0.265959 -0.12043 0.581055 
37 1 3.5722 3.35227 1.98581 -1.21235 0.0212481 -0.00580021 
38 1 3.34366 3.30588 4.91511 -4.9843 0.530341 -0.0285847 
39 1 3.19236 3.4601 7.6852 -0.442545 -0.49899 1.47055 
40 1 3.35872 3.56004 10.8168 0.410785 1.32589 -0.351523 
41 1 3.37737 8.92013 1.96399 0.620774 0.408248 0.0809003 
42 1 3.40766 8.84755 5.0583 -1.09037 2.12327 -3.02978 
43 1 3.2822 8.7865 8.0276 1.73109 0.691874 -2.07501 
44 1 3.5204 9.0681 10.8549 0.862982 -3.2301 -0.546422 
45 1 3.61054 14.5201 1.91466 1.51727 1.09438 1.0144 
46 1 3.299 14.481 4.97388 0.605526 0.435614 -2.5764 
47 1 3.41809 14.24 7.84192 2.87924 -0.851886 -0.347743 
48 1 3.37406 14.5836 10.7934 -5.4977 -3.27831 -2.59155 
49 1 8.87856 3.43868 2.24293 0.632287 2.24187 -1.03894 
50 1 9.04457 3.2724 5.09065 -1.60879 4.4493 1.92306 
51 1 8.79405 3.30571 7.92847 0.886213 1.07806 1.39601 
52 1 8.81664 3.33831 10.9994 -0.231504 4.11165 1.91593 
53 1 8.86216 9.03873 2.16958 1.74813 -0.0883746 -0.0946474 
54 1 8.80195 8.88811 4.98867 0.886698 1.33477 1.58009 
55 1 8.71706 8.83229 8.07275 1.12581 -0.241908 -1.90459 
56 1 8.99958 8.94778 11.0379 -1.69216 0.216797 -3.84778 
57 1 9.18003 14.4625 1.9566 1.80041 0.76331 -1.35569 
58 1 8.86927 14.3689 4.8345 -0.756126 -0.230791 0.631464 
59 1 8.80246 14.2667 7.91791 0.74885 0.210369 -3.28129 
60 1 8.79541 14.3644 10.8828 0.928547 -0.786152 -0.333721 
61 1 14.3655 3.35368 2.09156 -1.38769 -2.32903 0.826437 
62 1 14.4244 3.43185 4.99939 1.66841 2.65336 -1.77254 
63 1 14.2171 3.13513 7.9083 -1.00109 0.81915 1.71407 
64 1 14.4432 3.3392 10.9849 -1.09678 -1.4797 -0.252854 
65 1 14.4381 8.80471 2.03741 0.44655 -1.91133 -0.675616 
66 1 14.412 8.87538 5.02501 2.74809 0.737601 -0.646383 
67 1 14.1756 8.61331 7.94051 2.44514 -0.582092 1.85172 
68 1 14.4262 8.8628 10.7822 1.21595 1.26306 -0.269893 
69 1 14.5528 14.3983 2.14919 1.7472 3.30365 -3.91944 
70 1 14.528 14.3646 4.89789 0.279397 -2.06077 -2.68385 
71 1 14.3654 14.2972 7.97851 0.76199 0.6867 1.0045 
72 1 14.181 14.3102 10.8513 0.964642 -0.433778 0.29698 
73 1 3.27124 0.802084 2.8388 -1.5968 -0.0254336 0.0188386 
74 1 3.43711 0.742119 5.74846 0.791863 0.739421 0.181406 
75 1 3.4402 17.0101 8.61374 0.0093129 -1.0679 2.08803 
76 1 3.37122 0.764388 11.693 0.511384 -3.28125 0.786066 
77 1 3.31561 6.22372 2.66169 -0.981008 -1.81281 0.155774 
78 1 3.38629 6.12549 5.63011 2.08868 0.747865 0.88666 
79 1 3.22578 6.01435 8.70558 -0.901372 -1.99597 2.10694 
80 1 3.38423 6.23535 11.5664 1.75064 0.0293046 -1.95728 
81 1 3.33059 11.5795 2.8051 3.58236 -2.05323 2.01081 
82 1 3.31477 11.7167 5.54547 -0.697405 2.38399 0.514333 
83 1 3.33935 11.5255 8.62456 2.16403 2.65063 1.30816 
84 1 3.24257 11.8504 11.7361 -2.13447 -2.45209 0.0473549 
85 1 8.86386 17.0975 2.61703 0.915661 1.1426 -1.47348 
86 1 8.90186 17.0103 5.56575 0.409824 -2.54331 2.68445 
87 1 9.02697 17.1494 8.75118 0.257846 3.12172 2.42465 
88 1 8.9467 0.633013 11.5439 -2.04227 1.989 -1.73549 
89 1 8.88582 6.24006 2.7275 -0.896962 -1.7077 0.812796 
90 1 8.99078 6.14862 5.81333 1.22574 -1.59823 0.439214 
91 1 8.77718 6.05762 8.7339 -3.01931 -0.0524622 0.965318 
92 1 8.85838 6.20573 11.593 -1.54099 2.29977 -2.76729 
93 1 8.86398 11.7542 2.8634 -2.27194 -1.87701 2.05009 
94 1 8.85131 11.6332 5.77553 -1.57121 2.9114 2.51292 
95 1 8.72489 11.5865 8.62212 -0.0259518 -0.207472 1.10352 
96 1 8.84073 11.6267 11.6609 -1.73352 -1.0198 1.18581 
97 1 14.4001 0.709425 2.57392 0.255513 -0.510225 0.00595594 
98 1 14.3395 17.0621 5.62773 -2.22152 -1.56796 0.992061 
99 1 14.5073 17.0366 8.67084 0.434642 1.7007 -1.30583 
100 1 14.325 17.0402 11.4548 1.33884 0.168705 -1.27644 
101 1 14.4306 6.11137 2.81239 0.372565 -0.935617 -2.27768 
102 1 14.5355 6.11948 5.70655 0.483694 1.07927 -0.438673 
103 1 14.2769 5.90993 8.66382 0.362821 0.781913 0.0819078 
104 1 14.3346 6.07853 11.7387 2.63228 -0.115547 0.237752 
105 1 14.4342 11.738 2.66849 -1.69828 3.26375 0.929241 
106 1 14.5566 11.6282 5.76028 -0.142246 -2.57483 0.713377 
107 1 14.3258 11.4945 8.54496 2.58156 -0.267743 3.16596 
108 1 14.2615 11.6955 11.4194 -1.53354 -1.30469 -1.35589 
109 1 0.619114 3.37796 1.48655 1.3878 -2.11806 1.53481 
110 1 0.690454 3.38332 4.41619 -4.11042 -2.7256 0.274346 
111 1 16.9514 3.41078 7.36542 3.06943 -2.81003 -2.07152 
112 1 17.1278 3.55475 10.5394 2.17945 0.143912 2.07732 
113 1 0.620535 8.82836 1.3223 1.06964 0.741616 0.972344 
114 1 0.646326 8.87729 4.22521 0.306902 -3.37353 -0.761567 
115 1 16.9341 8.90201 7.19341 -0.179021 -1.20754 3.02451 
116 1 0.858771 9.01745 10.0975 -2.32672 -1.12608 -3.09456 
117 1 0.808757 14.4979 1.18427 1.45849 -0.142815 1.89661 
118 1 17.0955 14.4436 4.25936 -0.678953 -0.3506 2.31958 
119 1 17.0619 14.3857 7.26757 -0.821642 1.33513 -0.777146 
120 1 0.630092 14.5339 10.1607 2.21891 -1.02193 -1.15031 
121 1 6.20175 3.10569 1.32175 1.43561 0.789498 -0.75221 
122 1 6.32707 3.2953 4.24797 0.0421546 0.25085 -3.51339 
123 1 5.99477 3.51856 7.21538 -0.0147563 -2.74923 1.19104 
124 1 6.08233 3.37081 10.1725 0.288838 0.334765 1.94723 
125 1 6.11905 8.62325 1.35815 0.994546 0.249289 0.92232 
126 1 6.06953 9.01275 4.2317 1.16341 0.710864 -1.43824 
127 1 6.01279 8.88815 7.19698 1.66728 -0.579233 2.05006 
128 1 6.18682 8.86569 10.2831 -0.368527 3.55019 0.27351 
129 1 6.34419 14.3255 1.31836 -1.35063 -1.01425 -1.45809 
130 1 6.0293 14.4639 4.18384 -1.25487 -2.07758 -1.60079 
131 1 6.11632 14.404 7.16531 0.647885 1.64759 -2.06341 
132 1 6.01285 14.295 10.2022 -1.18985 -1.5631 0.936111 
133 1 11.6996 3.36772 1.34221 -2.03804 0.70835 0.914848 
134 1 11.6096 3.19757 4.1308 -0.321407 -1.35335 -0.222488 
135 1 11.5201 3.39966 7.0704 0.594908 -2.11249 1.75741 
136 1 11.518 3.46801 10.0167 0.733187 -0.832952 -0.530065 
137 1 11.6457 8.73675 1.36848 0.749901 0.332935 2.40155 
138 1 11.5711 8.67032 4.36192 -1.22865 1.89236 0.011068 
139 1 11.3968 8.79078 7.12918 2.21739 -3.52054 -1.7998 
140 1 11.714 8.97289 10.0789 2.59464 2.29876 0.159874 
141 1 11.8185 14.1859 1.3 -2.11666 2.40645 1.28698 
142 1 11.7507 14.3011 4.37072 0.46387 -0.976025 -1.55782 
143 1 11.456 14.4549 7.23269 2.54981 -0.797724 3.12488 
144 1 11.4192 14.5277 10.1024 -1.87439 0.971057 1.59239 
