LAMMPS data file via write_data, version 3 Mar 2020, timestep = 200000

128 atoms
1 atom types

0.0000000000000000e+00 1.4365052430000000e+01 xlo xhi
0.0000000000000000e+00 1.4365052430000000e+01 ylo yhi
0.0000000000000000e+00 1.4365052430000000e+01 zlo zhi
0.0000000000000000e+00 0.0000000000000000e+00 0.0000000000000000e+00 xy xz yz

Masses

1 118.71

Atoms # atomic

1 1 1.3135818578595986e+01 1.2059934684336307e+01 9.4187213642273537e+00 -1 3 0
2 1 5.9329093459087110e+00 6.8780959936389925e+00 1.3157754521693585e+01 0 0 -1
3 1 9.4467497998612231e+00 9.8524425787870769e+00 1.1163852344974162e+01 -1 -1 2
4 1 1.3063292451007252e+01 1.0048769312116251e+01 5.8056581344978142e-01 1 2 0
5 1 9.5253855911801288e+00 6.7865840850947716e+00 6.2291059824406245e+00 0 0 1
6 1 1.2715800184626367e+01 1.0844448118207152e+01 3.4686854617685610e+00 -2 -1 0
7 1 8.8992541789638917e+00 8.0647534134309442e+00 8.9308920893958312e+00 2 1 0
8 1 1.0956188850285596e+01 4.3837914411121917e+00 6.6670968520069813e+00 0 0 0
9 1 1.1761445930821887e+01 8.0992532359598695e+00 1.2001581925978989e+01 -3 -2 2
10 1 1.0227558428836060e+01 9.1094141873263332e+00 5.1096119320217523e+00 1 0 -1
11 1 5.2965786607668095e+00 3.4025601930386227e+00 9.0232089302850831e+00 -1 2 0
12 1 5.1196223205870872e+00 8.3681024691048798e+00 7.1823221747846127e+00 -3 1 0
13 1 4.2547741022371932e+00 1.2017197417177674e+00 1.2696697307392780e+01 0 0 -2
14 1 6.5372756414213373e-01 1.0211547366775193e+01 7.5756602068710119e+00 3 0 0
15 1 4.9169814699974648e+00 8.5858097042552917e+00 9.2022194136512458e-01 -1 1 1
16 1 7.9787839660784643e+00 9.8606738174333817e+00 3.5245556203237864e+00 -1 -2 1
17 1 3.3289346474826176e+00 1.2611817596478097e+01 1.2723635460293776e+01 2 -3 -2
18 1 1.1126854126423346e+01 5.0067662232537922e+00 1.1004101000715933e+00 -2 3 0
19 1 8.0072512514819270e+00 3.4521188903870095e+00 6.8745263353774488e+00 -1 0 2
20 1 4.3976563684187457e+00 3.2024115378215864e-04 1.0115852394781323e+01 1 1 -2
21 1 4.5009054027410800e+00 5.8956684690437813e+00 6.0762203212964474e+00 -1 -1 1
22 1 1.3471960773886774e+01 9.1018541337826520e+00 1.0019152779188982e+01 0 3 -2
23 1 7.8480782787993855e+00 5.0236423248525535e+00 8.8111950457794386e-01 3 3 1
24 1 6.6709260426952470e+00 7.4643741521912590e+00 4.6013629364119968e+00 0 1 1
25 1 7.9633782748300668e+00 1.2144589068394717e+01 1.1309951115228010e+01 1 -1 1
26 1 7.4876932086141954e+00 7.7464131473146383e+00 1.1175663876945821e+00 -1 0 1
27 1 8.8322252248447199e+00 1.6033603785308994e+00 1.3663614391720870e+01 -1 1 0
28 1 7.5384893210526780e+00 9.5478321290609554e+00 6.5968283195109505e+00 1 0 -1
29 1 5.2252466123095163e+00 9.8902795251002527e+00 4.6058250235288041e+00 1 1 2
30 1 1.3590546853033807e+00 2.2395891420472545e+00 1.2248962782938774e+01 1 -2 1
31 1 9.6619039630569912e+00 6.6350227428189505e+00 2.6580258848793124e+00 2 -2 -2
32 1 5.4173751623868620e+00 2.8566124263098622e+00 3.2455393016980976e+00 -1 1 -1
33 1 9.5898934135007927e+00 1.7407320970056572e+00 6.1961440860721684e+00 -1 0 -1
34 1 6.9964363263574434e+00 5.9189046575465092e+00 7.8405989492676316e+00 0 -1 1
35 1 7.3338902679310403e+00 8.9866152137927313e-01 4.7670586836557476e+00 0 1 0
36 1 2.8891922585332952e-01 2.5392548990066977e+00 7.7367750396411941e+00 -1 -1 -1
37 1 1.5263995082508599e+00 1.6667085109350551e-02 5.3327734067780472e+00 2 2 1
38 1 2.9060419501378116e+00 1.2252260103857116e+01 7.6600649631672333e+00 0 0 1
39 1 3.1632707548376486e+00 2.5995483103779033e+00 1.2072945114515463e+00 0 1 -3
40 1 1.1540295646164674e+01 1.1491817125425978e+01 1.1751521448337249e+01 0 -1 -2
41 1 6.8675386073025626e+00 4.8457909775793617e-01 1.1348444948015361e+01 2 0 0
42 1 6.7046150343704625e-01 4.5478528675221348e+00 1.4186799900420807e+01 0 2 0
43 1 5.0582506496207795e+00 3.6250163683621645e-01 6.9131567529990461e+00 -2 -2 0
44 1 1.3997743776176881e+01 1.2065783517916270e+01 1.2715843309474316e+01 2 0 0
45 1 1.1845482535952636e+01 1.0182570386123851e+01 7.4475735692625848e+00 -2 0 2
46 1 1.6188043323012604e+00 9.9533579572995521e+00 2.4575420652447026e+00 2 -2 3
47 1 1.0037370758285295e+01 4.5431727861155169e-01 3.7296756652377110e+00 0 0 0
48 1 8.0704559919053043e-01 1.4126924202772638e+01 8.2034321498750735e+00 2 1 -2
49 1 4.5993303618799182e+00 1.4346203933543647e+01 1.3691770364402618e+00 2 -1 1
50 1 6.0563080469603103e-01 1.8691251304768322e+00 2.8367240144785231e+00 1 -1 1
51 1 8.0731180558459048e+00 2.8686113792589191e-02 7.5597774824910529e+00 0 -1 -1
52 1 5.8160370231780600e+00 5.6289869890820645e+00 2.7494003652147168e+00 1 0 0
53 1 1.0444662372252848e+01 2.4205989547091824e+00 1.1467151132891191e+01 0 1 1
54 1 7.1652197154798705e+00 3.8759277463980473e+00 1.2130178248031390e+01 0 -3 -1
55 1 5.3247045883999764e+00 1.1958962660280463e+01 6.4699752703723341e+00 -1 -2 0
56 1 1.0742603750637436e+01 1.3592812600336204e+01 8.2703261298867350e+00 -1 -1 0
57 1 1.3737340292464372e+01 4.6359594135451463e+00 9.4349206217255492e+00 -1 0 0
58 1 8.3016211539401539e+00 1.2263572551585273e+01 5.8041290596983641e+00 -1 -2 1
59 1 3.1190590534129554e+00 1.9909863149211042e+00 7.3414647807719176e+00 3 -2 -1
60 1 1.1059455855265954e+01 1.2337232199351286e+01 5.0487087812274787e+00 0 0 -1
61 1 3.5841952596125219e+00 8.0158155992382891e+00 3.2352480831269586e+00 1 -2 0
62 1 9.7046630743789297e+00 1.2363180927726450e+01 2.4318412731022550e+00 0 -1 0
63 1 1.1919154812292414e+01 4.8038171444342359e-02 1.3047531864218588e+01 -2 1 -1
64 1 1.1415458514389149e+01 2.7333731642600205e+00 8.8863843616939739e+00 -2 0 -1
65 1 3.3549868758861114e+00 9.0242610475761147e+00 9.5131059684306862e+00 1 2 -1
66 1 8.4844603476210665e+00 2.9558344295487440e+00 2.5857413919904806e+00 -1 0 1
67 1 8.6511345186566793e+00 1.3128961646334949e+01 1.4135898057819603e+01 2 -3 0
68 1 1.1532315039214405e+01 6.9678850839615381e+00 8.7443598322545295e+00 1 -1 -1
69 1 1.3678013790703048e+01 1.9385347909109649e+00 5.7403320412438407e-03 1 0 0
70 1 3.5760784766802218e+00 9.4571563151397271e+00 1.3009720678316954e+01 -1 0 -2
71 1 1.3573417982025475e+01 6.1432350155296955e+00 6.7917687971254006e+00 -1 -1 -1
72 1 1.6166547021989184e+00 1.1088889351529064e+01 1.0210260330620622e+01 1 -2 0
73 1 1.2433923093235771e+01 4.4488546589313858e+00 1.1834094199409579e+01 -1 3 2
74 1 3.0265243173049741e+00 5.2960789350717903e+00 3.4597549449082949e+00 -1 -1 0
75 1 6.4977199410047524e+00 1.2413910200021730e+01 8.9850257691838262e+00 -2 2 -2
76 1 6.5020988703257085e+00 1.2686139943990359e+01 3.7630694534152731e+00 0 0 2
77 1 4.5200379141009348e+00 1.1409667550194801e+01 1.0483716922284700e+01 -2 0 0
78 1 2.3098212574491059e+00 1.1386162096194234e+01 4.9308532275065797e+00 0 -1 0
79 1 5.8865604943150514e+00 6.1216693888488765e+00 1.0387277598930718e+01 0 0 0
80 1 1.3194833108978418e+01 1.3782750659655625e+00 1.0471022169354546e+01 -2 0 1
81 1 2.0985667856608550e+00 8.4391451293593178e+00 5.6099291221999925e+00 -1 0 -1
82 1 4.2637350623500421e+00 1.4065010266931084e+01 4.1023465873893974e+00 -1 0 -1
83 1 6.1811225222387405e+00 8.8884726913978582e+00 1.0096583679631507e+01 -2 0 0
84 1 9.6754069919692764e-01 7.3423524232305226e+00 8.9216370303309187e+00 1 3 1
85 1 8.0711942142648905e+00 2.2601245190395356e+00 9.6723584121588519e+00 2 2 0
86 1 3.9436984914735858e+00 5.3068117122643601e+00 2.6859705613184770e-01 0 -2 2
87 1 1.3128736844493011e+01 1.4484000242381251e-01 3.8098866344973530e+00 -1 -1 1
88 1 1.0863683746797021e+01 9.3100154145879763e+00 2.3129790218379007e+00 0 -1 1
89 1 1.1119686722552229e+01 3.5048424083065712e+00 3.6775456486756366e+00 0 0 1
90 1 9.0533258867386692e+00 1.1127589473683832e+01 8.5644083555768997e+00 0 0 -2
91 1 7.4512711815314070e+00 5.4243637474614770e-01 1.9950125504174430e+00 -1 1 2
92 1 1.3220012896914740e+01 8.5693523415935644e+00 5.7504033768517022e+00 0 0 0
93 1 6.7459307904175168e+00 9.7679769037731710e+00 1.2719784796119017e+01 -2 1 -1
94 1 9.9646629674274489e+00 1.4218635723758357e+01 1.1101600315939976e+01 -1 -2 1
95 1 1.2140938806775438e+01 6.5373964318953375e+00 4.3361786090713297e+00 2 2 0
96 1 9.8643060052390918e+00 4.3374171024962331e+00 1.3367399368852954e+01 0 -2 0
97 1 1.6132516167656770e+00 7.6459501133498602e+00 9.4333892103323957e-01 3 1 1
98 1 1.0678590344053709e+00 1.4015801963113312e+01 1.1027736342007231e+01 1 1 2
99 1 5.2113591669106389e+00 3.2233290500340979e+00 6.1126605005567392e+00 0 0 0
100 1 1.9563135110137782e+00 4.8415225444094574e+00 6.9334359758057227e+00 1 -2 -2
101 1 1.7684826306805486e+00 1.1617200335232631e+01 2.3928903127076229e-01 2 0 2
102 1 1.2474783421370059e+01 1.3318539363411549e+01 1.4799929937100296e+00 1 1 -2
103 1 5.8666742108107695e+00 1.2977487168059294e+01 1.3405107057283262e+01 2 1 -1
104 1 1.2484538645196377e+01 6.1432243249273577e-01 6.7680214435696140e+00 0 1 -3
105 1 9.6847845233517056e+00 4.9778654415425363e+00 9.6877472411959058e+00 0 -1 -1
106 1 5.9358406566976001e+00 2.5081662885085572e+00 4.2279896372458076e-02 -1 1 2
107 1 7.3750221898267956e+00 1.1121427234636636e+01 9.9198905584587194e-01 2 -2 0
108 1 1.1104282457774866e+00 1.3236722785858301e+01 2.8630150744117264e+00 1 0 1
109 1 1.5725604381031277e+00 4.1879882357654818e-01 3.8774622264253683e-01 2 2 -2
110 1 4.9133195501732413e-01 5.9590923625022754e+00 4.2919984486820368e+00 1 1 -1
111 1 4.0167969462845541e+00 3.8158864037056093e+00 1.2103013320033011e+01 -3 -1 0
112 1 9.9852268119405938e+00 7.9765362256026524e+00 1.4203239569490332e+01 -3 1 0
113 1 3.3053705476743520e+00 6.0865614392664922e+00 9.1672378486502133e+00 1 0 -1
114 1 7.9810431857856239e+00 4.6526923040494932e+00 4.5584830372973553e+00 0 -1 0
115 1 8.5524147393486416e+00 7.5220360694556758e+00 1.1775718025030876e+01 1 2 -1
116 1 4.1029192723581698e+00 1.1469131268543018e+01 2.4939538906035374e+00 -1 -1 2
117 1 1.0618873993343845e+01 1.0881223890463030e+01 1.4093762939500982e+01 -3 0 1
118 1 2.7481448027279294e+00 2.5880078829735833e+00 4.5503397091682292e+00 -1 0 2
119 1 3.0184111286995918e+00 6.8613809417956624e+00 1.2457158790870396e+01 -1 0 1
120 1 1.3068512356071613e+01 7.0003657168076510e+00 1.4347604583610993e+01 1 -1 -2
121 1 1.3557091489036788e+01 4.3575647702605478e+00 2.1748770620455278e+00 -1 1 2
122 1 2.5647950594072135e+00 3.5680156767851066e+00 9.7382073691643871e+00 0 1 1
123 1 1.3610448012462850e+01 3.7075060541400044e+00 5.4522740532875105e+00 1 -1 0
124 1 1.1103130996043665e+01 1.5374550660344675e+00 1.5512779130567869e+00 -3 1 0
125 1 1.4112459875560392e+01 1.2201349876488136e+01 6.3300206083649559e+00 0 -1 1
126 1 5.3330492977085819e-01 9.3555058837383367e+00 1.2432935926364825e+01 0 -2 0
127 1 1.3608688295440261e+01 8.0788026069165948e+00 2.5365040133010757e+00 0 1 -1
128 1 5.5906783670290461e-01 6.3621437587236764e+00 1.2007087904055808e+01 2 4 -1

Velocities

1 1.3197966604152611e+00 -3.5668328674740439e+00 1.0307130696766453e+00
2 -8.8165893930316874e-01 9.8767294641019332e-01 -2.7032689049004549e-01
3 -2.7878636280419394e-01 3.4797141118999240e+00 -2.6709249358602500e+00
4 2.5937209245963149e+00 2.3711164482089595e+00 9.2325578414717890e-01
5 2.2647580506915101e+00 1.0386029114524162e+00 -7.1414943884639226e-01
6 2.0570431106304238e-01 4.0861831260967835e-01 -6.8561569072088335e-01
7 -2.3019036907022747e+00 1.8607364738221670e+00 -8.8019424971457294e-01
8 1.4243615759392747e+00 -2.1089326092527938e+00 -4.0222800159791916e+00
9 -1.6183176390297718e-02 -2.1280503490906977e+00 -2.0369262869465525e+00
10 -2.0093379468932232e-01 -2.6493649826644265e+00 -9.9295123588634859e-01
11 -1.8559563168682454e+00 -8.6632432256791283e+00 1.0950242063598431e+01
12 -3.9335632889406069e-01 2.4992498499225828e+00 2.3809426735237502e+00
13 -1.9787044172826722e+00 -7.1934991343654424e+00 2.9471463326690910e+00
14 -2.0736298022145911e+00 -5.9997939577292358e+00 1.2259843118185427e+00
15 9.1381177855957152e-01 -2.9282902033275271e-01 -6.4886815442645240e-02
16 5.4892766391692593e-01 4.2940241832870335e-01 -3.8426692550697439e+00
17 -2.4373203108429524e+00 -2.0064906486246854e+00 -6.4308539265147235e-01
18 -1.6146834428189307e+00 4.5175197171766088e+00 8.1261887619165785e-01
19 2.6800432892931867e+00 3.1018363690748291e-01 -5.4513583260681777e+00
20 -3.4195403987490036e+00 -2.5027622954537514e+00 -2.1614018779811568e+00
21 1.0475442960336345e+00 -1.0441107584895597e+00 3.3471837651263940e+00
22 -3.1785060366775242e-01 -1.2409393942421179e+00 -4.7817836436387564e+00
23 3.9443948891428654e-01 3.6422430214758572e+00 4.5161165794373179e+00
24 -2.8613473651412367e+00 -1.0662758545247328e+00 -1.4752059511605267e+00
25 -5.3320585751199063e+00 -3.4068154277057099e+00 -3.5451568421593551e+00
26 2.3860887314021753e-01 7.3536246384784187e-01 -4.4467532462017232e+00
27 -7.2878934393308348e-01 -8.2052425758426895e-01 6.3556861081514091e+00
28 5.8770449476338427e-01 5.7947434485769694e-02 -4.4944097957922641e-01
29 -7.0755429726560370e-01 3.6376825668563453e+00 5.5532236368013732e-01
30 -4.8487649628722906e-01 -6.5936654482460985e-02 7.5294575586725871e+00
31 -3.2866030249315337e-01 3.4261516773657927e+00 -1.9508605065663651e+00
32 2.7764196762940321e+00 9.7618599715286898e+00 -3.0502883757395476e+00
33 -1.2967514177214785e+00 8.7966039646902612e+00 3.2345230193667425e-02
34 -4.0560786004332683e-01 -2.7033102904961877e+00 -5.2738150764715179e+00
35 -1.5651400922322398e-01 2.2673107204027723e+00 4.9640871869885110e+00
36 3.8430644929844098e+00 1.5148911253261297e+00 -1.9234991044473708e+00
37 2.7686193080631973e+00 1.3846419074794036e+00 -4.4695966702591798e+00
38 1.9128283164891202e-01 -1.9783093193672068e+00 -3.7478842413200386e+00
39 2.0694695199028521e+00 -2.9178578848097856e+00 3.1121310424822402e+00
40 -4.3907629626444999e-01 -1.4315553491818602e+00 -5.6314598429092566e+00
41 4.1526519622798803e+00 1.5069307977473631e-01 -2.8995283618139878e+00
42 -1.7532832569592223e+00 1.2961437439738344e+00 -2.3941073326013940e+00
43 2.8180945578973153e+00 7.2309549072366686e+00 -1.4231236892993926e+00
44 1.7088726709828805e-01 -3.1792994548586204e+00 1.5691369438724794e+00
45 7.9646469711214190e+00 1.0319598890805566e+00 -2.9812626952543781e+00
46 -3.4891171862264231e-01 -1.9672842957584931e+00 -1.8996526110863092e+00
47 2.5400052248992804e+00 -5.4133309418154374e-01 -6.5304266317717230e-01
48 3.0278613660143472e-01 2.4591119187244739e+00 6.2564239499331112e-02
49 -9.0743965342238031e+00 2.7069440505442655e-01 4.3138542005562481e+00
50 2.2966513989808224e+00 4.2076493334342396e-01 -3.2408266665728487e+00
51 3.2363274465373730e+00 6.4455323876902133e+00 -3.7075538470755092e+00
52 -1.8976614923646136e+00 -3.5391010610883189e+00 1.3744912741390141e+00
53 1.8490243118252174e+00 -2.8174156227855813e+00 2.8000939557994871e+00
54 -5.6373695606097458e+00 8.1439430475259644e-01 3.4216505758372584e+00
55 -3.9877979070393157e+00 3.5565896420122911e+00 1.8056919443430193e+00
56 -6.4911100466321230e+00 4.0728885796917857e-01 -2.4005392008991255e+00
57 -3.4236304386431993e+00 -3.0105648289469142e+00 2.9211331755429062e+00
58 -2.3881566817347188e+00 -4.5710826720476572e+00 -6.1674939578637744e-01
59 4.3214200296004854e+00 -1.8069659478649958e+00 2.1136029884232275e+00
60 -3.7612901397225902e+00 4.8359753995216126e+00 5.0814734260259371e+00
61 -4.9179741449796008e+00 -1.0958976366585649e+00 -3.1432218012886408e+00
62 6.6069732705777930e+00 1.4961147098120122e+00 -5.2677270467874253e+00
63 1.1253602369182854e+00 -4.5847917748071643e+00 -3.8399151068859259e+00
64 2.2786783015410883e+00 -1.8515262948732307e+00 -1.0786027552335291e+00
65 9.7291066862177111e-01 -5.2255755552233278e+00 4.9566742599410718e+00
66 3.4011838425329588e-01 -3.2529430269051725e+00 1.5752979222849590e-02
67 -5.8649128861876774e+00 2.3820564637644916e+00 5.6668225425709142e+00
68 8.5509197775986712e-01 8.7830197638655391e-02 1.2279414399835920e-01
69 -6.5996325324657636e+00 -1.5036512324432663e+00 -1.2991390447109812e+00
70 -1.6039261304133421e+00 -1.9370734901818889e+00 3.0540519682370992e+00
71 -1.3776153384735110e+00 1.3142501114051997e-01 -5.5806661142665517e+00
72 -1.7827357817015770e+00 -2.1786301440873146e+00 3.4915531053081614e+00
73 -4.1876418128490140e+00 -1.3092183134653285e-01 7.5736239100266944e-01
74 -1.8324114541326717e+00 -6.9301229375791067e+00 8.1998867498524675e+00
75 9.7643241748864129e-01 -2.8519347003989637e+00 -3.4028877444877148e-01
76 -3.8478829312865748e-01 2.2078071440818050e+00 -7.3915520678854829e+00
77 1.8333815459328691e+00 -1.6513252648689909e+00 -1.9536728218191675e+00
78 4.4439579230826922e+00 5.3526491096541413e+00 1.3105439995508883e+00
79 3.0965904235357495e+00 1.3687182971048879e+00 1.9590949196299117e+00
80 1.6369680789032639e+00 4.0754278408741804e+00 1.6529067692652464e+00
81 1.6907945831580404e+00 2.5646756626388885e+00 1.6250856300363883e+00
82 2.4697485801344659e+00 -1.1408035064418138e+00 2.2160362764708150e+00
83 -1.4462961860677528e+00 -2.4146509122230646e+00 2.7735922871845398e-01
84 1.9379270715802908e+00 -2.3459739615989234e-01 2.0808109939621753e+00
85 -6.3415264117239349e+00 3.1467201201627120e+00 -7.6298776426398995e-01
86 -4.4761858957862816e-01 4.5807030326234521e+00 -3.4792462229638486e+00
87 -8.4752372365340931e-02 -5.4566016064868901e+00 -2.5624285494358698e+00
88 -1.9631016732689117e+00 -3.9122745465379705e+00 3.2270293806400230e+00
89 -8.0461910353909598e+00 6.9128410051673459e+00 1.7798181750498774e+00
90 4.0488072542201312e+00 8.2103456486349149e+00 4.6990981791534772e+00
91 -1.3359874096715360e-01 -4.5173364913371818e+00 -4.6293068387062846e+00
92 -1.7672649090791546e+00 1.8136437850536919e+00 8.6640569759639707e-01
93 3.8935113465493920e+00 -1.6144474755285352e+00 6.0188357420009879e+00
94 1.9290955043433231e+00 -6.3193173289450089e-01 1.5659485448249251e+00
95 -2.2190930540228195e+00 -2.2536680108448159e+00 3.3785472959184406e+00
96 4.1612605131025937e+00 -3.4384855796008198e+00 -3.6796513871620564e+00
97 1.1339897438244469e+01 3.7441583667384908e+00 -5.1642099482790655e+00
98 2.0014801673395826e+00 -4.6120503659956497e-01 -3.2190400124225587e+00
99 -3.8638790029792931e+00 6.5188237673197351e+00 -7.1909791417662285e+00
100 -1.9102293805827206e-01 4.3911712117739974e+00 -6.0932684014201559e+00
101 2.7171233334623284e+00 -3.2956684525061060e+00 -9.1521501094797675e-01
102 2.2257890574924133e+00 7.2413390301117087e+00 -2.5923386484212267e+00
103 -2.5229680433310735e+00 -5.2572040851299819e+00 -3.3974124511762835e+00
104 -5.0633454500495934e-01 -3.2536840088856791e+00 6.9150685892552666e+00
105 -2.8020927586097506e+00 4.1322778141560518e-01 -2.2125896645325445e+00
106 -2.7423772284920362e+00 -2.1567748727091169e+00 -1.7300575066475372e+00
107 8.8685110500878430e+00 4.0586626587434553e+00 6.6279851839371318e-01
108 8.0054943757990973e+00 1.9255000039915071e+00 -7.5671241680009715e-01
109 2.7353248866890314e+00 -8.5515754015698886e-01 -4.8436840901857670e+00
110 -1.8784068081995908e+00 -1.9603821226791964e+00 5.2141646248786726e+00
111 -3.0212195621118205e+00 -2.6146313084909063e+00 6.6841967353060283e-01
112 -3.1078351564939837e+00 1.4782704489165877e+00 -5.0954889189885861e+00
113 -7.9495151269209261e+00 -1.0071933554047879e-01 -9.6638321057263088e-01
114 -2.7692963541838438e+00 -1.2065672557822003e+00 1.4040285325786988e+00
115 3.4987268415968722e+00 5.6696926167224122e+00 3.4366336284628800e+00
116 -3.0314480221603426e+00 1.1596182263200205e+00 2.8388568331762110e+00
117 1.1579787773577670e+00 2.8783280559160312e-01 4.1106734371638014e+00
118 -2.4758128326644502e+00 -8.6063490484071945e+00 1.4137301228747059e+00
119 8.2434311666696161e+00 -3.2226494108266341e+00 -1.3924183221739019e+00
120 -2.7125631193990398e+00 -4.2650265134038037e+00 -2.6988572157627049e-02
121 -3.0220772303947783e+00 -1.2299417269711899e-01 -1.3837049469006066e+00
122 1.8192520695883616e+00 2.7759985023603684e+00 4.3649168342902529e+00
123 1.0386846155066851e+00 1.8560790374252651e+00 2.1146452363876738e+00
124 2.8570669798724140e+00 4.2395337625987013e+00 3.9035482488092708e+00
125 4.9157510590582580e+00 -4.8830841313606417e+00 2.3331099863457259e+00
126 4.1077165016992998e+00 3.1398641701839392e+00 2.4665804522793580e+00
127 -1.4818114338732407e+00 -1.6963950661939713e+00 -1.0592998138718257e+00
128 -9.9551611028311104e-01 2.7098191999848664e+00 3.5305793670250241e+00
