LAMMPS data file via write_data, version 3 Mar 2020, timestep = 200000

144 atoms
1 atom types

0.0000000000000000e+00 1.6992475850000002e+01 xlo xhi
0.0000000000000000e+00 1.6992475850000002e+01 ylo yhi
0.0000000000000000e+00 1.2115729060000000e+01 zlo zhi
0.0000000000000000e+00 0.0000000000000000e+00 0.0000000000000000e+00 xy xz yz

Masses

1 118.71

Atoms # atomic

1 1 1.6311702974038425e+01 1.6550163487966071e+01 2.2032590020784393e-01 0 0 0
2 1 1.6408105510983276e+01 1.6363594331108498e+01 3.2897694179031878e+00 0 0 0
3 1 1.6446618170198654e+01 6.0126287030220960e-01 6.2109705118141187e+00 0 0 0
4 1 1.6350869527506411e+01 6.1880378326315455e-01 9.3361206472199285e+00 0 0 0
5 1 1.6406074780366254e+01 5.2144180268804083e+00 1.8324152147412875e-01 0 0 0
6 1 1.6438422396615412e+01 5.0269405465042212e+00 3.3404248199693143e+00 0 0 0
7 1 1.6361731940645651e+01 6.2257397657041826e+00 6.3302231155902726e+00 0 0 0
8 1 1.6533478045655908e+01 6.2119260616389189e+00 9.3206874806366695e+00 0 0 0
9 1 1.6350075273605530e+01 1.0816048819292767e+01 1.0334453421030637e-01 0 0 0
10 1 1.6494403294439316e+01 1.0894416262719435e+01 3.3326364527805041e+00 0 0 0
11 1 1.6392266077845679e+01 1.1775661657613510e+01 6.2742191023184661e+00 0 0 0
12 1 1.6432606131269576e+01 1.1955760990090454e+01 9.3701179354837922e+00 0 0 0
13 1 5.0447160581457631e+00 1.6317017053579626e+01 2.4190688712748093e-01 0 0 0
14 1 5.0403581409740381e+00 1.6593939556818874e+01 3.2249666712581657e+00 0 0 0
15 1 4.9981256915210173e+00 5.4800478618432658e-01 6.3950326446361689e+00 0 0 0
16 1 5.1791697937392227e+00 6.0575650941491066e-01 9.4047419718080132e+00 0 0 0
17 1 5.0306154214555878e+00 5.0241267193083985e+00 2.1900003116369196e-01 0 0 0
18 1 5.1503176638810908e+00 5.2187063527734807e+00 3.2114866340215147e+00 0 0 0
19 1 5.0064446605513009e+00 6.1544738369496557e+00 6.1950216703217089e+00 0 0 0
20 1 5.1392886456745295e+00 6.0253659958200414e+00 9.3633429417238005e+00 0 0 0
21 1 5.1253619569916591e+00 1.0712797831386601e+01 3.1972035439985680e-01 0 0 0
22 1 5.0150913873144463e+00 1.0751058166719957e+01 3.3922531741296411e+00 0 0 0
23 1 5.0878981498216111e+00 1.1865749310885073e+01 6.3502161205760794e+00 0 0 0
24 1 5.1223113073299249e+00 1.1744263182438122e+01 9.4567779830757441e+00 0 0 0
25 1 1.0671715595547562e+01 1.6501928867568466e+01 2.8215001189450417e-01 0 0 0
26 1 1.0633737107133962e+01 1.6444181561302575e+01 3.3680862188458609e+00 0 0 0
27 1 1.0797481412791184e+01 6.2960376511629934e-01 6.2852460016084954e+00 0 0 0
28 1 1.0704819810586617e+01 4.7836843096006348e-01 9.4721518173275854e+00 0 0 0
29 1 1.0771081459465334e+01 5.2069722988470639e+00 1.2195187747768405e-01 0 0 0
30 1 1.0833731104497515e+01 5.1102119386455991e+00 3.1393664608757437e+00 0 0 0
31 1 1.0753737117218849e+01 6.1385461827500469e+00 6.1239431189418267e+00 0 0 0
32 1 1.0707256804466144e+01 6.2601744747941197e+00 9.1618463370106813e+00 0 0 0
33 1 1.0713025527624051e+01 1.0801165393021797e+01 1.6774788532850929e-01 0 0 0
34 1 1.0806121013801478e+01 1.0825087379644232e+01 3.2660631781406120e+00 0 0 0
35 1 1.0663501332553585e+01 1.1859865225894174e+01 6.2681082242194535e+00 0 0 0
36 1 1.0740455351336070e+01 1.1961542717317821e+01 9.3265065762340065e+00 0 0 0
37 1 3.3600035395777956e+00 1.9183363046595052e+00 1.6545761657254139e+00 0 0 0
38 1 3.5912096484263873e+00 2.8133312675122508e+00 4.6407139479807720e+00 0 0 0
39 1 3.4741979209724954e+00 3.6845399765180589e+00 7.6774165448398994e+00 0 0 0
40 1 3.4700382655102224e+00 2.9549970110519785e+00 1.0635188374578746e+01 0 0 0
41 1 3.4697332595794288e+00 7.6491330496279941e+00 1.6823114460807169e+00 0 0 0
42 1 3.4176531220473767e+00 8.5009570686554294e+00 4.7804201255069643e+00 0 0 0
43 1 3.3934519274071393e+00 9.3328847219434490e+00 7.8484477579968237e+00 0 0 0
44 1 3.4342935777757098e+00 8.4545807855681563e+00 1.0704895148750474e+01 0 0 0
45 1 3.5355280143199277e+00 1.3280781837888773e+01 1.6538930986204863e+00 0 0 0
46 1 3.3953449725160465e+00 1.4177665433557042e+01 4.8066721401169676e+00 0 0 0
47 1 3.4363367740689008e+00 1.5077347536838412e+01 7.7876447428873457e+00 0 0 0
48 1 3.4217012364806334e+00 1.4259919538729143e+01 1.0709977886154380e+01 0 0 0
49 1 9.1782788883993760e+00 2.0140204027246438e+00 1.7431004883675918e+00 0 0 0
50 1 9.1675386924258060e+00 2.9617786260935475e+00 4.7855163025882419e+00 0 0 0
51 1 9.1977624070397130e+00 3.7823267306725015e+00 7.7648953313183098e+00 0 0 0
52 1 9.0475498437932149e+00 2.8350476567681060e+00 1.0905698925411896e+01 0 0 0
53 1 9.1509958145307984e+00 7.6055314076814735e+00 1.7049900076816533e+00 0 0 0
54 1 9.1720264387233872e+00 8.4605222530996862e+00 4.7298859641561011e+00 0 0 0
55 1 9.1318792525125421e+00 9.4545701171706824e+00 7.7620164294527791e+00 0 0 0
56 1 9.1859882385631959e+00 8.5415151414628721e+00 1.0799107890535597e+01 0 0 0
57 1 9.0437504282352457e+00 1.3331373344734462e+01 1.8068956683575059e+00 0 0 0
58 1 8.9744920426789125e+00 1.4038332819717203e+01 4.7349289891336959e+00 0 0 0
59 1 9.0477605198753928e+00 1.5107330180143027e+01 7.8901528480917484e+00 0 0 0
60 1 9.1606282247384119e+00 1.4179639849827815e+01 1.0872723995059710e+01 0 0 0
61 1 1.4853066039431633e+01 1.9704332663888193e+00 1.8707381437602790e+00 0 0 0
62 1 1.4816030375270518e+01 2.7303327053295936e+00 4.7300005909606844e+00 0 0 0
63 1 1.4829882979489463e+01 3.6739779799303482e+00 7.8917209010727039e+00 0 0 0
64 1 1.4806820152255190e+01 2.8762885054965515e+00 1.0852577788533583e+01 0 0 0
65 1 1.4792924753030102e+01 7.5618124006523475e+00 1.8405914593793620e+00 0 0 0
66 1 1.4697448674467868e+01 8.4996351185060135e+00 4.7969765036467038e+00 0 0 0
67 1 1.4696608837432089e+01 9.4025613660114473e+00 7.8591209626630620e+00 0 0 0
68 1 1.4751262705600366e+01 8.4452233920777982e+00 1.0796962728684118e+01 0 0 0
69 1 1.4773110312705043e+01 1.3309495501706456e+01 1.7703992829035242e+00 0 0 0
70 1 1.4819750645952578e+01 1.4182446882304813e+01 4.8338666900786533e+00 0 0 0
71 1 1.4748747704426281e+01 1.5090425709232358e+01 7.8083080179326885e+00 0 0 0
72 1 1.4698105660608389e+01 1.4204680485233387e+01 1.0956712853198399e+01 0 0 0
73 1 2.2417411801396487e+00 1.6048879136433651e+01 2.0299752331257919e+00 0 0 0
74 1 2.2577152527544553e+00 2.1054596337530283e-02 5.1279603777996572e+00 0 1 0
75 1 2.2087074876061545e+00 8.9392915986970645e-01 8.1432294593405015e+00 0 0 0
76 1 2.2027891783874174e+00 1.4584010420203719e-01 1.1250789416507031e+01 0 0 0
77 1 2.2615574378589440e+00 4.7563268456167780e+00 2.0446715579080328e+00 0 0 0
78 1 2.2519879362674606e+00 5.6072722137523980e+00 5.0653560258672545e+00 0 0 0
79 1 2.3048455974701860e+00 6.4573057444542146e+00 8.1417339951587717e+00 0 0 0
80 1 2.2671004670785466e+00 5.7500651937954794e+00 1.1235120494358432e+01 0 0 0
81 1 2.1912964152027792e+00 1.0501487044525389e+01 2.0315806157540592e+00 0 0 0
82 1 2.2289414246708446e+00 1.1267877343581645e+01 5.1533987928044036e+00 0 0 0
83 1 2.1947100808625963e+00 1.2154182054688452e+01 8.1283516449511133e+00 0 0 0
84 1 2.3018780312220977e+00 1.1375483646878399e+01 1.1295312424171943e+01 0 0 0
85 1 7.8338989929359641e+00 1.6227450538577472e+01 1.9878854492886318e+00 0 0 0
86 1 7.9690494553526383e+00 6.5976698926351510e-02 5.1155282210650599e+00 0 1 0
87 1 7.9674374846905165e+00 1.0029877485276506e+00 8.1547992923480184e+00 0 0 0
88 1 7.7761795029027772e+00 1.6974129012125697e+01 1.1153531315756799e+01 0 -1 0
89 1 7.8950554127141954e+00 4.7794197505219591e+00 2.0074627195574890e+00 0 0 0
90 1 7.9008839450696078e+00 5.6785391089199866e+00 5.2057898426515417e+00 0 0 0
91 1 7.9566859042797526e+00 6.6387828570321741e+00 8.0699335996102661e+00 0 0 0
92 1 7.8990055079497257e+00 5.6948296465790529e+00 1.1097472783444196e+01 0 0 0
93 1 7.8971736836784325e+00 1.0425441676257815e+01 2.0288260369108948e+00 0 0 0
94 1 7.8593871658798991e+00 1.1166130050340465e+01 4.9781351136716196e+00 0 0 0
95 1 7.8210023335451915e+00 1.2273488435833581e+01 8.0243189264286592e+00 0 0 0
96 1 7.8866598218037591e+00 1.1387568196622725e+01 1.1082143473531172e+01 0 0 0
97 1 1.3590973593436766e+01 1.6100149014664890e+01 2.1943968792036816e+00 0 0 0
98 1 1.3591042661876854e+01 1.6933763055807635e+01 5.2551324726886381e+00 0 -1 0
99 1 1.3504855828782970e+01 9.4025880446447940e-01 8.2813445641751429e+00 0 0 0
100 1 1.3502709588517801e+01 1.0191467051954500e-01 1.1270829653857222e+01 0 0 0
101 1 1.3650453933839017e+01 4.8260401964049793e+00 2.1115220224727422e+00 0 0 0
102 1 1.3605462655424587e+01 5.6318522630019832e+00 5.0712883620150100e+00 0 0 0
103 1 1.3599298448589121e+01 6.6035445640604360e+00 8.2142436929763889e+00 0 0 0
104 1 1.3592379166137631e+01 5.6480132845873667e+00 1.1089715086113065e+01 0 0 0
105 1 1.3615333693646205e+01 1.0532956201300676e+01 1.9540781815951664e+00 0 0 0
106 1 1.3555915914741027e+01 1.1293137296227940e+01 5.0448545382747643e+00 0 0 0
107 1 1.3570218765305865e+01 1.2231537342505874e+01 8.0556745939885062e+00 0 0 0
108 1 1.3574132873770406e+01 1.1385545294744791e+01 1.1091789900228113e+01 0 0 0
109 1 5.8296732726238820e-01 2.3410013165691113e+00 4.8848615348870195e-01 0 0 0
110 1 7.2604413106086541e-01 2.2298126235744160e+00 3.6044517750845082e+00 0 0 0
111 1 5.2326256924593140e-01 3.3633739840071577e+00 6.4826262434477089e+00 0 0 0
112 1 6.6043894141912318e-01 3.4060482074964034e+00 9.6479226960284468e+00 0 0 0
113 1 5.2733430832859740e-01 8.0649861967721979e+00 5.5142872940533205e-01 0 0 0
114 1 5.4523535815159041e-01 7.9222892668057669e+00 3.5797630688512903e+00 0 0 0
115 1 5.4982970688125732e-01 8.9838033933919021e+00 6.7290212534598384e+00 0 0 0
116 1 6.0504587699516776e-01 9.1886690150485979e+00 9.6966437664903289e+00 0 0 0
117 1 5.3158434984807401e-01 1.3640931787816459e+01 6.1739794056522712e-01 0 0 0
118 1 6.4666241036653738e-01 1.3643917667853236e+01 3.6465234154708290e+00 0 0 0
119 1 5.8599844840354420e-01 1.4665731386482081e+01 6.6547195518839279e+00 0 0 0
120 1 5.2820672959984294e-01 1.4861003029635233e+01 9.7887601324749820e+00 0 0 0
121 1 6.2342583278590586e+00 2.2150644629073710e+00 5.2657020769075891e-01 0 0 0
122 1 6.4423310305899850e+00 2.2383743065389390e+00 3.6174227502688283e+00 0 0 0
123 1 6.2964318192486912e+00 3.3492193911948878e+00 6.6195227667848311e+00 0 0 0
124 1 6.3591283520408037e+00 3.3955619884205421e+00 9.7721727949870658e+00 0 0 0
125 1 6.2225745336302509e+00 7.8738542754368259e+00 4.6840151447437089e-01 0 0 0
126 1 6.3432323489194973e+00 7.9814909571292043e+00 3.5805380225720245e+00 0 0 0
127 1 6.2746018776924819e+00 8.9498199027030552e+00 6.5864159451004909e+00 0 0 0
128 1 6.2982218455867320e+00 9.0343436035828404e+00 9.6485689307978841e+00 0 0 0
129 1 6.2544191813659422e+00 1.3686310815878869e+01 5.2512536828979361e-01 0 0 0
130 1 6.1794967312750639e+00 1.3555895056143392e+01 3.5167444200895299e+00 0 0 0
131 1 6.2463764413602689e+00 1.4722730099636273e+01 6.4459030386700071e+00 0 0 0
132 1 6.3895799565868616e+00 1.4702086687790839e+01 9.5928385573858606e+00 0 0 0
133 1 1.2014332506846941e+01 2.4885714149267413e+00 6.4927533574114382e-01 0 0 0
134 1 1.1980231235522950e+01 2.2090537258827974e+00 3.6291729560763741e+00 0 0 0
135 1 1.2008230068016799e+01 3.3717427117098544e+00 6.6232521751922597e+00 0 0 0
136 1 1.1876823398468821e+01 3.4219772959243953e+00 9.7071757945865844e+00 0 0 0
137 1 1.2025992193361196e+01 8.0373633026602533e+00 4.2852312973823481e-01 0 0 0
138 1 1.1964091568453799e+01 7.9616030119993395e+00 3.5818479237258662e+00 0 0 0
139 1 1.1958118936702023e+01 8.9637307326881821e+00 6.5806785901737310e+00 0 0 0
140 1 1.1922290322621762e+01 9.0985949515148103e+00 9.6741154868953512e+00 0 0 0
141 1 1.1887291921976635e+01 1.3660086919801930e+01 5.8182909592234411e-01 0 0 0
142 1 1.1939182114253407e+01 1.3674476350234642e+01 3.6380880553530708e+00 0 0 0
143 1 1.1848289319780244e+01 1.4680068902798755e+01 6.6408039761788267e+00 0 0 0
144 1 1.1957621497427038e+01 1.4746715987618117e+01 9.6615250230947360e+00 0 0 0

Velocities

1 -1.1642217181014232e+00 -1.9851173479386457e+00 -1.0767940969185591e-01
2 -1.0197378392198155e+00 -2.2034659058016496e-02 -9.3885070580129848e-01
3 -8.8792995551677870e-02 -5.6357497050261218e-01 -6.4738129278405021e-01
4 -2.4025952131948108e-02 1.4366535534918592e+00 -1.2539375746887660e+00
5 -1.5587453097508701e+00 1.2382601584013355e+00 -1.8523422537885739e+00
6 9.8276649661245297e-01 -3.8957609835382440e-01 1.8700026279017772e+00
7 -7.5941116165010802e-01 8.2575664297627949e-01 -1.0761282751477850e+00
8 1.1371961729194879e+00 3.6719406402645893e-01 2.5956699190774313e-01
9 8.0032411407356263e-01 -6.1927749058654480e-01 1.1030651326974652e+00
10 -1.9129709085586263e-01 3.6635947532858609e-01 9.2365523079008205e-01
11 4.1738334872446381e-01 -5.3462458167384386e-01 1.8481903401312909e+00
12 4.6453295143538259e-01 7.8217140739460111e-01 -8.6580473657989809e-01
13 -6.1051511393057722e-01 -2.4039478554180119e-01 -1.6417566491722595e+00
14 4.6235484872324106e-01 7.7444219313689866e-01 1.3188836304333105e+00
15 -5.4189047090793807e-02 2.6000568402263970e-02 1.6277345769013600e+00
16 -1.7547683708555795e-01 1.0130517425460543e+00 -4.5322930373399373e-01
17 1.1819117953280898e+00 3.9912089218192581e-01 1.0061265249603164e+00
18 1.1730190000958309e+00 1.2845301289398264e-01 -7.6380294098503365e-01
19 -2.5849168232544470e+00 1.5650269141252993e+00 6.8356181564717566e-02
20 -4.6075653343795389e-02 -2.4852290448734810e-01 -5.8244516075487252e-01
21 -2.0693933713112458e-01 -2.8384807835746739e-01 1.5748861580842082e+00
22 8.8354240965593467e-01 -1.3319250147094142e-02 4.7882614177042843e-01
23 1.0816077340965635e+00 -5.1809576782763578e-01 2.6928786165540664e-01
24 2.4250293016552842e+00 3.1535395045851694e-01 6.6496194054725188e-01
25 -5.4190482957194064e-01 2.2414953210521227e-02 2.1914699018717336e-02
26 -2.0913730553520346e-01 -2.2147674363300962e-01 -5.3325935234278732e-01
27 -1.8708429171872361e+00 -3.8681795577360273e-01 -3.7849526804850298e-01
28 4.0121321035447993e-01 1.8601208130146090e+00 -4.1550177068481586e-01
29 2.4870522171852830e-01 -1.6945815754731055e+00 -8.8372604076883099e-01
30 4.2075599468756630e-01 -7.7418913059984795e-01 7.9163335954659908e-01
31 3.3086773024230787e-01 -5.1368951460897871e-01 -2.0281731252676150e-01
32 -4.6561891979914527e-01 4.0847392114022874e-01 6.5093410565009147e-01
33 2.0160158114655387e+00 1.2458334947348062e+00 4.4289567955203846e-01
34 6.9207635057805839e-01 -2.2541165849375546e+00 1.4509694313893557e+00
35 -9.2190325192640099e-01 2.2250485649480165e+00 -1.6915958212337632e-02
36 -8.1516291800721241e-01 5.3891134679189401e-01 1.4429075080622857e+00
37 -3.0910954296298621e-01 9.0403282491718795e-01 1.2173064407889262e+00
38 -5.2378808431979473e-01 -6.4572119976277009e-01 -2.8740606045769218e-01
39 -9.0815061969404343e-01 -1.1465383521215680e+00 2.1845158534203249e-01
40 -7.6117434620152491e-01 -2.9333258247883937e-01 -1.4165450988918302e+00
41 1.3779733487316075e+00 1.3797483378055880e-01 6.6418304194408473e-01
42 -5.4239525978944075e-02 1.2263394774771434e-01 9.2440164603480579e-01
43 1.1765660351998983e+00 1.5381224106854516e+00 -3.7402246023368890e-02
44 8.5102858174877005e-01 -6.4241201043926000e-01 -6.5077071214479865e-01
45 1.1832505875238097e+00 4.8341313933937874e-01 -1.6525790764131804e-01
46 -1.0476070479983686e+00 5.7947501161893511e-02 -1.9593115190113322e+00
47 -1.0361810600423355e-01 -1.1193312973539242e+00 2.8248434027470953e-01
48 1.2726380520168135e+00 2.8236015983454643e-01 8.5195848277689945e-02
49 -1.4765862135021145e-02 -4.8545067084532478e-01 5.8462980446886281e-01
50 1.5698731995847062e+00 -1.5721862657022940e+00 1.4233937049237764e+00
51 -8.5065518549048691e-01 8.7648749980816665e-01 -7.2040849593209522e-01
52 3.5194391078014059e-01 -3.9721890002134369e-01 -4.0173002996946428e-01
53 2.2874018452749922e-01 1.0311811251396068e+00 -8.5426339717558430e-01
54 2.4287736609582700e-01 3.9871684675975327e-01 1.0169202890714593e+00
55 -1.1382723531496381e+00 -4.0960217773264662e-01 1.3393278073887271e+00
56 1.0474019464708153e+00 1.6330987807693755e+00 7.1089091933559356e-01
57 -5.6065365343383622e-01 -1.6055240794070853e+00 -1.4953024610937256e+00
58 3.5433870234037845e-01 1.0352468056015938e+00 -6.7221445709775640e-01
59 -3.4247027845606903e-01 -5.9252373968253946e-01 -7.8077354088101869e-01
60 -6.1629087859092346e-01 1.1314016830062905e-01 2.9053145275186376e-01
61 -4.9154591710516854e-01 -2.1995520434813161e+00 9.0332419214550874e-01
62 1.0767671064515514e+00 1.6920383497188907e+00 2.3322084752545447e-01
63 2.2481116463146122e-01 7.5036059545865036e-02 -2.8073866741547864e-02
64 1.1094208795132012e+00 -1.4609669859281098e+00 4.5245282017585031e-01
65 -1.2455311292951849e+00 8.7367410455389505e-01 -1.3265877437066740e+00
66 -1.6958702601284151e-01 -1.4122401914433214e+00 3.7996406281549877e-01
67 3.1940590996790097e-01 -6.0913285186721462e-02 -1.2405532726145538e-01
68 -4.2912803081009854e-01 -1.2238572329488895e+00 6.4391719497583277e-01
69 1.2003505432816242e-01 -8.4458236660119579e-01 3.8596607701956935e-02
70 -6.5372893384182096e-01 -4.4186882782965642e-03 4.4855148681315488e-01
71 -5.1468703192948251e-01 8.6958268522753723e-01 -3.9391586196521916e-01
72 1.1679479290379042e+00 9.7858123467086144e-01 -5.1680078669221330e-01
73 -9.9006219279231686e-02 -1.2566632844668941e+00 -4.8330584240806701e-01
74 -1.3076868032696203e+00 6.9494332492497823e-01 -5.8021542941053494e-01
75 1.3018223188090627e+00 8.0345456559182216e-01 -1.9132954894757756e-01
76 5.6324593243631693e-01 1.0787872309188049e+00 -1.2107618428299205e+00
77 -1.4299688078915114e+00 4.2731979895684463e-01 5.1457413286313136e-01
78 -6.0880172531747090e-01 -5.3817559467421769e-02 3.8776175610937147e-01
79 1.1389834958445051e+00 4.1963592877577122e-01 6.0597704591115527e-02
80 3.5768733362349969e-01 -2.1161182814028201e-01 1.2437642470411476e+00
81 -1.2731669559206751e+00 6.9984587271599156e-03 6.2467803423596591e-01
82 -4.7804543168048441e-02 9.1574198134456747e-02 1.6998843536334216e-01
83 9.3232818202381795e-01 -4.9753106507178690e-01 -9.9131712379438552e-01
84 -4.0619373198469960e-01 -1.7161823288564046e+00 -9.9438282422965152e-01
85 1.4278534237084943e+00 3.4090355532464706e-01 1.1156547356477751e+00
86 1.2422308371240076e+00 -1.1921113593046171e+00 9.2035520149951477e-01
87 1.0122906619755199e+00 -8.3023597728668164e-01 1.2869538721871352e+00
88 -3.1666242667638300e-01 -1.0814484737490541e-01 -4.6763543258134221e-01
89 -6.8792835736716615e-02 -3.2842729513818053e-01 -1.6208931781847435e-01
90 -1.4490657956859589e+00 2.1064736743394201e+00 3.9176705741196899e-01
91 -1.2401240491683758e+00 1.4258856994761198e+00 -7.1606964795401695e-01
92 4.2583189986395953e-01 1.9829562075629364e-01 -2.0875625233535724e-02
93 3.1747016011637458e-01 5.3803710621414313e-01 7.3726885109452001e-01
94 1.8113245409176360e-01 -1.2014856743562090e+00 -1.6876527677921288e-01
95 1.7515245793441320e-01 -8.0812845077835849e-01 1.6068322497013501e+00
96 6.4054219687078506e-01 -7.4840859296494922e-02 -5.1956077353035768e-01
97 6.4913477808514997e-01 -3.9644586348145727e-01 -1.0320053626351551e+00
98 -1.6687605662293390e+00 -4.3657469283169648e-01 -6.1908149260516843e-01
99 -1.0851849190388654e+00 -1.4046220563012393e+00 -8.8805675312226506e-01
100 4.5515485408995221e-01 1.2770914639912105e+00 7.0027011747374723e-01
101 -4.6576077964364992e-01 2.0974950098259149e-01 -1.3300613708943141e+00
102 9.4768722921843418e-01 1.4739832566343087e+00 -8.9886998049945055e-01
103 -7.7030225444060207e-01 -1.0855543920908486e+00 1.4914067548539252e+00
104 -1.2733703303287276e+00 2.0101800432466077e-01 5.2617724730307713e-01
105 3.3485855252065566e-01 -1.0106679765251034e+00 -4.0734809130491523e-01
106 1.3687715116149304e+00 -2.9183260480610734e-01 4.4245885710268501e-01
107 -5.1654393258708942e-01 1.5875797378791741e+00 -8.6106999947412466e-01
108 5.2821046381502190e-01 2.1460867538624648e-01 -5.8301701132753003e-01
109 -1.6472815461034669e+00 9.1000227149762647e-01 -9.4176271551939728e-01
110 2.5800875804468476e-01 7.6770691695483528e-01 4.5974055571075950e-01
111 -2.8419279267612302e-01 -4.6783379907309586e-01 -3.3895656904842658e-01
112 7.8255637404805056e-01 -3.9953093327490447e-01 -1.4671851716189093e+00
113 2.8511885901028411e-01 -3.4121216953135344e-02 3.7425186399901350e-01
114 5.3594400399527498e-01 -7.2089167986900438e-01 1.6998061288804586e-01
115 -1.4390532185335733e-01 1.1696303565695543e+00 2.8303143424726535e-01
116 1.4247441676217347e+00 -1.1537217657734200e+00 -1.4277429139410471e+00
117 -1.7380516476127042e-01 4.7648868570471131e-01 6.2755176020801440e-01
118 3.4856724608367212e-01 1.0142722310933592e+00 -1.5174896937517921e+00
119 -6.9201476217490759e-02 6.3607646353073810e-01 -5.6221641612671325e-01
120 -1.3950509923222241e+00 6.3552389307390933e-01 -1.0260280987692711e+00
121 -1.9442527630618245e+00 -6.5272416404607525e-01 -1.0861414831737020e+00
122 4.9639302907832933e-01 -8.9388191783403836e-01 4.4314188447175318e-01
123 3.5832426930769729e-01 -7.7447613198163678e-01 2.1211908202857346e-01
124 -7.7033572999120803e-01 6.5731325107093286e-01 -8.2604231869530254e-01
125 4.4831354290685455e-01 1.6709647057871704e-01 4.4947126788025099e-01
126 -1.2630327778360588e+00 5.9677273928658303e-01 -5.4203368054230894e-01
127 1.0440850363927778e-01 -5.4157501200176783e-01 -5.6302065333223371e-02
128 -8.7857296893605097e-01 -1.3206334244697995e+00 4.0712203603705928e-02
129 -1.0074518565107287e+00 -5.2192730795104547e-01 -1.0826577344591200e-01
130 9.6913589151504731e-01 -2.2050608596643459e-01 3.1088562674101961e-01
131 -7.4859298585688783e-01 -2.0457370117111026e-01 9.6005432977188465e-01
132 -1.9565255715130483e+00 -1.6770967750382992e-01 5.1726583180259822e-01
133 3.1154055411638332e-01 -2.6804828512827744e-01 5.6941637849433280e-01
134 1.1668365370561176e+00 -4.4066587575133531e-01 -1.9112081250624433e-01
135 2.0138953959592554e+00 6.2368998801290065e-01 4.7598856151677105e-01
136 -2.0426561531498351e+00 -7.3574372158495616e-01 -6.8600875362699276e-01
137 -1.0260327238833863e-01 -1.1682857876005937e-03 -1.0487230793118958e-01
138 -6.7150376761372130e-02 -1.9025706593286598e-01 2.6526527614701856e-01
139 9.0666310348668433e-01 8.4681690873851334e-01 5.4693705717159091e-01
140 1.0953255302386043e-01 1.7626881250287338e-01 7.7289084730910929e-01
141 -1.7188457675323814e+00 -7.4336753682091627e-01 -2.1530681536123710e+00
142 -8.8129512265708876e-01 1.1514912967448390e+00 2.2359114286607129e+00
143 2.0168922454170199e+00 -3.8754287288019451e-01 -1.9389362495513185e-01
144 -1.6571833836279104e-01 -4.4199814721928038e-01 -8.0782465407497817e-01
