LAMMPS data file via write_data, version 3 Mar 2020, timestep = 400072

128 atoms
1 atom types

-2.8600923701969094e-02 1.5248600923701655e+01 xlo xhi
-2.8600923701969094e-02 1.5248600923701655e+01 ylo yhi
-2.8600923701969094e-02 1.5248600923701655e+01 zlo zhi
0.0000000000000000e+00 0.0000000000000000e+00 0.0000000000000000e+00 xy xz yz

Masses

1 118.71

Atoms # atomic

1 1 5.5443344101638994e+00 1.2548437074822795e+01 6.0253916790773232e+00 0 -1 1
2 1 1.0856158562491842e+01 1.1874248566940803e+01 9.1532756294323629e+00 -1 0 0
3 1 9.2171314906052686e+00 1.3532164863681279e+01 1.1396907041394600e+01 0 -3 1
4 1 8.5371201398483321e-01 5.0158349684383940e-01 1.3164689578210229e+01 -2 -1 1
5 1 9.9495765450917251e+00 3.1905785595779275e+00 1.1271983204168002e+01 0 -1 -2
6 1 5.9389690306645884e+00 1.2428264583622127e+01 1.3954076214413491e+00 -2 -2 -1
7 1 1.2383384767118841e+01 5.5463528206283934e+00 7.4496044383093274e+00 1 -1 -1
8 1 6.8076223211147795e+00 4.1739116675850663e-01 1.1742839072299544e+01 0 1 1
9 1 1.3909149465120445e+01 1.1207170405571622e+01 1.4818571610011649e+01 0 0 -3
10 1 5.4805352652484123e+00 1.3962778848863604e+01 9.2345129793523100e+00 1 -3 2
11 1 3.6844843105903657e+00 1.1531202308693898e+01 8.5840136376989182e+00 -2 0 1
12 1 1.5064754969930416e+01 8.3226380165678506e+00 1.4532181108438508e+01 0 3 -1
13 1 1.1486840342948987e+00 1.1605053031006389e+00 8.8705113400363302e+00 0 0 -2
14 1 6.5497653818556234e+00 1.0259694773519476e+01 3.4487910002512732e+00 -1 3 1
15 1 1.4439950027439263e+01 9.4559445299953548e+00 7.3702321224256542e+00 -1 -1 0
16 1 1.4150036323613758e+01 1.2002693419143291e+01 8.5732354634827335e+00 -1 1 0
17 1 6.6375617172834680e+00 4.8049008047285193e+00 2.1457603553305824e+00 -1 -1 2
18 1 1.2415285623881855e+01 5.0936043972557394e+00 1.0441379877717560e+01 -2 0 0
19 1 5.0056137396146791e+00 7.3997289409249944e+00 1.2234102103790056e+01 0 -1 -3
20 1 1.4662610181797451e+00 8.5439899204761751e+00 3.9391203683555962e+00 0 -2 4
21 1 7.3569687722358443e+00 1.1317780787481718e+01 1.2934728664695639e+01 0 -1 1
22 1 7.0736328683578611e+00 1.4172279992440961e+01 3.6175630049938370e+00 1 -1 1
23 1 1.4035206053197504e+01 1.0306629037969964e+01 4.5980142775054551e+00 -1 1 1
24 1 4.4848374100786526e+00 9.7033489015337970e+00 1.0507498375114231e+01 -2 -3 0
25 1 3.4217665750079491e+00 1.5866186329931847e-01 1.0574986793423191e+01 -1 0 0
26 1 8.1455280937447139e+00 2.3587020146096687e+00 3.6821335068013403e+00 -2 1 -1
27 1 9.0129888636795084e+00 5.2262837439674534e+00 9.2494108721976467e+00 2 4 -2
28 1 3.7480376199853329e+00 4.8933915024410854e+00 1.4912040653923047e+01 0 1 1
29 1 1.4452844778885765e+01 6.9138211118635828e+00 8.9135732872110527e+00 0 4 -2
30 1 1.4860723304550600e+01 6.0822842360541216e+00 3.8766320156953982e+00 0 -1 3
31 1 6.6650363014129796e+00 3.9597054820137401e+00 5.5829290795613167e+00 -2 1 2
32 1 3.5866773804273060e+00 1.4497417642626411e+01 6.3565586196399915e+00 -1 0 1
33 1 9.5782281968948002e+00 9.7436431446031531e+00 4.8983004237754404e+00 3 0 -1
34 1 1.1147273597686372e+01 9.9532174752240792e+00 1.4441902789893803e+01 -2 -1 -1
35 1 4.0128467227070761e+00 1.1254493940485874e+01 3.6399534713349384e+00 1 1 -3
36 1 4.1711054170329271e+00 2.6988578221466479e+00 1.8367491990496867e+00 1 1 1
37 1 5.2342111555386044e+00 1.3992288299584157e+01 1.4267387600126286e+01 0 -3 1
38 1 1.1228784922357683e+01 1.2755286127342847e+01 1.4955776698904851e+01 0 -1 1
39 1 3.2623930743113932e-01 3.8052970153404795e+00 1.0207179963850242e+01 0 -1 0
40 1 9.9334583679954385e+00 1.3501587156310302e+01 4.2981343211273382e+00 2 1 2
41 1 1.9974862454121549e+00 4.8890354294058787e+00 3.4722092661402173e+00 -1 1 -1
42 1 5.5263672144212679e+00 1.0475391470550177e+00 4.6380793295073346e+00 2 4 0
43 1 1.4633836294265951e+01 1.4265616096912089e+01 9.4624737688918152e+00 0 -1 1
44 1 6.4055064832848441e+00 5.5361145829006986e-01 1.1044912427482576e+00 0 1 0
45 1 2.8096843693499798e+00 2.2199974088071408e+00 5.4328055724879549e+00 0 -1 -3
46 1 1.5640469712341094e+00 4.9399137176475327e-01 1.2615674207773204e+00 5 2 0
47 1 5.3229962973121872e+00 1.2146942406447565e+00 8.0463651625585513e+00 0 1 0
48 1 1.1054385801388429e+01 1.6006669224037389e+00 4.5801670932366223e+00 -2 1 0
49 1 1.2885733034366377e+01 1.4487804603088534e+01 2.9811988094981765e+00 -1 -2 -2
50 1 7.6655317308236324e+00 1.7718413629696450e+00 9.3554626647639356e+00 2 -2 0
51 1 8.4179754701601013e+00 1.1788191902174130e+01 6.3118877641707734e+00 -1 -2 1
52 1 1.1605126490874520e+01 8.7654657432907541e+00 2.1840594083618750e+00 -1 -1 -1
53 1 1.3033136603830616e+01 8.7988094552863103e+00 1.0397649546469070e+01 2 -2 0
54 1 1.2659338230545268e+01 7.1864912413574817e+00 1.4253764317357692e+01 0 -2 -3
55 1 2.7911745935409646e+00 9.6387421692168971e+00 1.3349190300116691e+01 -2 -1 0
56 1 3.5215253691813659e+00 1.3793466386562527e+00 1.4227216255972875e+01 1 0 1
57 1 3.7340238646304358e+00 6.4001340880110504e+00 6.9504614965400817e+00 1 2 -1
58 1 6.0819246063578514e-01 5.2208431247272582e+00 6.9090151737172087e+00 3 3 -1
59 1 -8.8903545383910917e-03 3.1431879001589271e+00 1.3746388407880032e+01 1 1 1
60 1 4.9446953591040410e+00 8.2211163124551874e+00 1.8855540604766086e+00 2 -1 1
61 1 5.3757713881204312e+00 3.4162594943860665e+00 1.1102519063353395e+01 1 -1 -4
62 1 1.4094383908629636e+01 1.8868889802772408e+00 2.2025041266836749e+00 1 0 -1
63 1 4.4602650284030515e-02 1.0196637536712512e+01 1.2167059050879544e+01 -1 -1 1
64 1 1.4721998955516957e+01 5.9112522666257563e+00 1.2067159342625034e+01 -3 2 -1
65 1 1.4976609986205007e+01 1.2685765397310725e+01 2.1170226624115305e+00 0 -1 -3
66 1 2.5420500805094353e+00 1.2886668498316562e+01 1.4358925759906430e+01 0 0 -1
67 1 3.0383815165105301e+00 3.6885690438327901e+00 8.4047436762498737e+00 0 -1 1
68 1 1.3733266070594858e+01 1.4261392485844441e+01 6.1311315507786697e+00 0 0 1
69 1 8.6877822343611122e+00 7.0693823206370610e+00 7.0681028142453659e+00 -1 -2 1
70 1 7.1579191955184127e+00 5.5131908576655668e+00 1.1626849881290353e+01 -1 0 1
71 1 8.5765605276106118e+00 1.4006694589325591e+01 1.4917332677053334e+01 2 -2 0
72 1 8.1681551156796388e+00 8.3417151251468571e+00 1.1032553122309686e+01 -1 0 1
73 1 1.3655064710529091e+01 2.9479005479427820e+00 8.0813911265042861e+00 1 0 -2
74 1 1.1372262603113139e+01 3.4771264650334288e+00 1.4518860425700726e+00 0 1 0
75 1 1.5190155225184130e+01 1.3058339066703013e+01 1.2995368635756984e+01 -1 0 -1
76 1 1.3937537774735442e+00 1.1708171975559676e+01 1.0274228313644928e+01 -2 -1 -1
77 1 1.0140911967054901e+01 2.9185484281524415e-01 1.9778859545551941e+00 -1 -1 0
78 1 1.1590455993747893e+01 8.8596580789519876e+00 7.7510105693671107e+00 2 2 0
79 1 6.5380212561240620e+00 1.1365653039633326e+01 9.8706376619134453e+00 1 -1 1
80 1 6.4284712644251540e-01 1.5062250201332374e+01 4.1944238917821819e+00 -2 0 1
81 1 1.3107165143093155e+01 4.1065172082371504e+00 4.4799392106586327e+00 -2 1 3
82 1 3.7556771534287048e+00 1.2317368856616481e+01 1.2128602178941794e+01 -1 -1 0
83 1 1.3362604176272659e+00 1.2151230066456883e+01 4.3498721839797572e+00 1 1 -2
84 1 1.1013071689829699e+01 7.2752260263646065e+00 1.1648262197387318e+01 0 -1 -2
85 1 2.3092814451142947e+00 9.3167846812703488e+00 6.9132117551286276e+00 0 -1 -2
86 1 1.2230884199528958e+01 1.1644744263710729e+01 3.3476394257659319e+00 0 3 1
87 1 9.4201648928913144e+00 5.3630252925787829e+00 1.4348900999700026e+01 2 0 0
88 1 8.3033317832070725e+00 8.8612889983917871e+00 1.4412732284485166e+01 1 -1 1
89 1 5.4731900340768460e+00 9.4655997068924798e+00 6.1938247339112600e+00 0 2 -1
90 1 3.5579160007799189e+00 6.2261991310654281e+00 9.9592449250444375e+00 -1 -1 -1
91 1 2.4678913037777379e+00 7.6846216258107880e+00 4.7729972280044164e-01 2 2 0
92 1 8.7022075145653837e+00 1.3930374070818450e+01 8.5355549068047605e+00 -1 0 -1
93 1 8.9414397982683234e+00 7.0860856935186840e+00 1.8513177322568510e+00 0 0 1
94 1 1.2543280465190470e+01 4.0396133389998319e+00 1.3855024138848064e+01 0 1 -2
95 1 1.3432043734193768e+00 1.2584739660050602e+01 7.1237912485023926e+00 -1 1 -1
96 1 9.8830186314024751e+00 1.0478659978624764e+01 1.2084074401428756e+01 0 1 0
97 1 1.1844625443732408e+01 1.1766149907922326e+01 6.3316086764057564e+00 0 0 0
98 1 8.9734344303939579e+00 1.1017396772672646e+01 1.2055788774122000e+00 1 -1 -1
99 1 1.2354747340621477e+01 1.2003781413569192e+00 1.4876572148538763e+01 -2 1 0
100 1 6.3071358497620160e+00 7.5096796352361856e+00 8.4520531414912412e+00 0 0 0
101 1 7.4229551337085438e+00 6.8187010872355707e+00 4.2873083848490419e+00 -2 -3 1
102 1 9.5906624698109120e+00 9.3396373160591295e-01 1.3166475661739675e+01 0 2 -2
103 1 5.5323233269695749e+00 1.0037652665724922e+01 1.4683895473787560e+01 2 -1 3
104 1 1.4514303136252993e+01 1.4480218274518245e+01 1.2063204916922185e-03 0 -2 1
105 1 1.0738037082979444e+01 1.5008953559590767e+01 6.9933338001468082e+00 0 -1 -2
106 1 9.4846119677212464e+00 2.7547288800878089e+00 7.5026806461189484e+00 0 2 0
107 1 1.1472105545051370e+00 3.6359187779376687e+00 1.1116650558067114e+00 0 0 0
108 1 1.4443016715212817e+01 8.9481359582075708e+00 1.8772244504027149e+00 -1 0 0
109 1 6.6727535598294088e+00 2.8356895609842403e+00 1.3985413212424083e+01 0 0 -2
110 1 2.0565640782886394e+00 6.7767607549042257e+00 1.2762816903879534e+01 0 0 -2
111 1 2.0225290311693094e+00 1.0527829970890686e+01 1.2201482954217100e+00 1 0 0
112 1 1.1632886195127959e+01 1.4858644658397628e+01 1.1861364099527563e+01 3 -1 0
113 1 3.7974942805832645e+00 1.4326205678144722e+01 3.1404824662955768e+00 2 1 -1
114 1 7.4236117376249022e-03 2.0642604323290699e+00 5.8647762268926291e+00 0 1 -1
115 1 8.6630234579049645e+00 9.7903304623596892e+00 8.4962847846054395e+00 -1 1 1
116 1 1.2463837494167327e+00 8.9287919182583675e+00 9.5907383265102286e+00 0 0 2
117 1 2.4421071130733156e+00 3.6688607362338606e+00 1.2542333524760007e+01 0 -2 -2
118 1 7.9577125167208900e+00 2.8915704405399667e-01 6.3204110927460064e+00 1 0 0
119 1 4.5831319071134358e+00 6.3065255761861261e+00 4.2071738613643763e+00 -3 -2 4
120 1 6.3329340025432757e+00 6.3965090790893120e+00 1.4894649526210310e+01 2 -1 1
121 1 1.1645084243691770e+01 1.3867818134268690e+00 9.3878504924494059e+00 -1 -2 -1
122 1 5.9098981355030062e+00 4.2779538669236459e+00 8.3917219763070836e+00 2 2 1
123 1 9.9428472320560672e+00 5.0373958749217795e+00 5.6140264810082883e+00 -1 0 0
124 1 1.2524480445587121e+01 1.1997032220218774e+01 1.1761457679098184e+01 1 0 -1
125 1 1.3387650687576896e+01 5.7581701000030998e+00 1.2709753829550372e+00 -2 -1 1
126 1 1.2136011753767118e+01 7.3415476341189017e+00 4.8982849677868288e+00 -1 -1 1
127 1 1.4274600701669522e+01 1.3326421598038014e+00 1.1206055399599867e+01 -2 1 0
128 1 8.5884432996146121e+00 2.7336069374489234e+00 8.0903932391074718e-01 -2 3 1

Velocities

1 2.1936587988641612e+00 2.4494720559598915e+00 5.7835343653310597e-02
2 4.2747475327465363e+00 -2.2412980648594467e+00 -3.7248788094001313e+00
3 -7.5550114141856839e-01 4.4567547585078165e-01 1.3374254057286015e+00
4 1.6264788561600569e+00 2.9211816647996796e+00 4.2418457670425038e+00
5 3.4012351013591466e+00 -1.2235387736419191e-01 2.6772519279414762e+00
6 3.6734135721469552e-01 -3.6812424618287358e+00 3.7964498131573632e+00
7 -1.0516045904766516e-01 2.8528211661620309e+00 3.5299257293933026e+00
8 -1.7978952090061138e+00 1.7463277270532884e+00 -2.2181395141859004e+00
9 -3.3062687152753685e+00 -2.6673006486272417e+00 2.6373317952684605e+00
10 -3.5586627655601997e+00 -2.8218551145039988e-02 -5.7430245567309801e-01
11 1.2030368862202265e-01 3.8340387955732389e+00 2.5517479871806410e+00
12 3.4947475881178498e+00 -6.0117586908088967e+00 -3.4235498181020341e+00
13 -3.9390955085623558e+00 9.3318948626616671e-01 1.2538821868156416e+00
14 -8.1653230913219677e+00 -6.2383032381600156e-01 1.9043297639756321e-01
15 2.8173093593987537e+00 2.5982813819673019e+00 3.0644806790760781e+00
16 2.2903786684274978e+00 1.7249224965781582e+00 3.4349456976479695e+00
17 3.2574481355650735e+00 -6.2256875930879030e+00 1.8711868587770166e+00
18 4.8592756673083404e+00 3.9166360868378600e+00 -2.0359195743696863e+00
19 8.3640831332507091e+00 2.5106700777020658e+00 -9.3680806483310508e-01
20 -1.3217206594676894e+00 9.7284270125704009e-02 1.3747217098974085e+00
21 -1.7528134538877880e+00 -4.7777954882506899e+00 -1.5291369300989259e+00
22 -4.3434059268303047e+00 1.3799952458663693e+00 -9.8805485107547597e-01
23 -1.1296556846851100e+00 1.8303258725223093e+00 -2.1730924482901792e+00
24 3.3359997867493463e+00 -1.7912800488133970e-01 2.0680943324418188e+00
25 4.1024042232205316e-01 -3.3852663951348592e+00 -2.5725844200609096e+00
26 -5.0122796409908190e+00 -1.7859538108029074e+00 6.4726214106216928e-02
27 -3.8140572437748319e+00 3.6272683501100778e+00 -7.4427647177628764e-01
28 -4.7690633821506658e+00 -2.5627579767910059e-02 1.9137149155093325e+00
29 -1.4748620050561019e+00 -5.5719210495611249e-01 2.1065310730926017e+00
30 -2.9860264798948460e-01 2.2892075035062018e+00 -7.5526550529446879e-01
31 1.2431219311551298e+00 -3.3953718230704020e+00 4.4036036314713982e+00
32 2.0150220106084435e+00 2.0013793181304989e+00 -7.0646331454835687e-01
33 -9.8232611738148345e-01 1.8671618853908842e+00 -2.2962030547224295e+00
34 2.5338191980406619e+00 -1.6817519067238667e+00 5.1157213522970257e-02
35 -2.3387332771442368e+00 2.6273418834490139e+00 -3.2502509394124859e+00
36 4.5211133099399801e+00 -5.1494341077422341e+00 -3.0284065529538484e+00
37 -2.0194640557023367e+00 4.4609026474511255e+00 -1.9326759219912883e+00
38 -3.2655272416482051e+00 3.8311439342688069e-01 1.4186665307743280e+00
39 2.6201250286215108e+00 -8.0253109500967745e-01 6.9898002216366333e+00
40 9.5820803855743741e-01 2.0289212849129306e+00 3.7515416379478789e-01
41 -5.6638514730278011e-01 -1.7873448646332484e+00 1.8047532790888905e+00
42 -4.8791083155667101e+00 -1.4550186355081945e-01 1.2677892270788977e+00
43 3.3795406803637058e+00 1.7933674196473393e+00 4.1572748827680037e+00
44 -3.5370670855798858e+00 -1.1885833501024421e+00 2.6071748373910508e+00
45 1.9109223788491239e+00 5.8961189129302607e+00 6.2700242967823105e-01
46 3.3964348059185419e+00 3.5310999362954350e-02 -5.5328825324831472e+00
47 -6.2733407615969650e-01 1.1989726518539434e+00 2.7913364414360307e+00
48 1.6340260261860073e+00 2.7458345498498788e+00 -2.2731775120282471e-01
49 -3.8501315561015454e+00 -5.3481821772855598e-01 1.8827396593138375e+00
50 1.8898170032603148e-01 2.3894893762805355e-01 -2.2797608246698577e+00
51 -4.1847046734205575e+00 -7.2387910453414808e+00 -1.9682646973288713e+00
52 1.7589683849863877e+00 8.0887110129835857e+00 -5.7718623209885385e+00
53 7.2887282731016645e-01 -2.0561431596918847e+00 -4.6102606903568448e+00
54 5.1791209480580882e+00 -6.8807737920277590e-01 1.6962898943017712e+00
55 -2.4327457543102686e+00 -6.2847611499640399e+00 -1.9269551935850804e+00
56 5.8503668025132178e+00 1.0016521072372793e+00 -1.2762820159473554e+00
57 2.8210907086000994e+00 7.0677655522556053e+00 2.2112993420327509e-01
58 -5.9797829727854861e+00 1.3461417890825660e+00 -3.9410163351662799e+00
59 1.9633916785237271e-01 -2.1771788219312262e+00 -7.0026931311530438e+00
60 -2.1982391599214135e+00 -7.8623690497887075e-02 -4.6693519883362117e-01
61 -2.4632995154371273e+00 -7.2977700321496619e-01 1.7807510595980369e+00
62 -1.6744664993697402e+00 -5.7563159562196498e-01 5.1696933551954527e-01
63 -2.4110526407216254e-01 -3.6544696957727374e-01 -5.2059284466749158e+00
64 -2.9733864228183520e+00 2.0425320331466001e+00 -3.0411955313274608e+00
65 -1.2870036063764139e+00 -2.6106256479646364e+00 3.1663102195919106e+00
66 2.6386093732707758e+00 -1.1106352963097885e+00 6.5667270757546001e+00
67 1.1616387056197444e+00 -5.7276155486692282e-01 1.9617522400565763e-02
68 -3.8646597922595877e-01 5.0766771618529605e+00 3.1196474354203318e+00
69 -3.4362172579479324e+00 -5.4251755768811560e-01 -6.0226540636870318e-01
70 4.1813236412956316e+00 -8.0474435769485819e-01 1.6142508990097021e-01
71 3.1589497028631506e+00 4.2318176700774696e-01 -1.7302113471001688e+00
72 1.2074897461379785e+00 -7.6102084665983527e-01 -2.0223241535056569e+00
73 -2.2429414221693880e+00 -4.3756320227525303e-01 6.8808152139582479e-01
74 3.1073524228527791e+00 7.5203573008604740e-01 -3.9749388679344827e-01
75 3.0769663193527235e+00 -2.9461521228015894e+00 -3.5001092935196748e-01
76 3.6616509155701609e+00 -8.6033507353068739e+00 9.1856006022268422e-01
77 4.2208313318801602e+00 -3.7032453046545686e+00 4.6854747116576745e-01
78 -3.3698577826031539e+00 -4.1919982333150987e+00 -1.1267662276915744e+00
79 -3.1464372705925463e+00 -1.6497483028880680e+00 2.7367652901232407e+00
80 4.2125639083831148e+00 -9.5053217651358779e-01 -3.0319043429202552e+00
81 9.8993919731622615e-01 -1.6137299898633792e+00 -2.8854689854015730e-01
82 -6.9063921434957065e-01 -3.0186501971651212e+00 -4.5084447818388729e-01
83 -5.2959773795928600e-01 -4.5489394684218065e-01 3.5447000660579140e+00
84 1.1319060310259039e+00 -2.7069428023215472e+00 2.8914766673341408e+00
85 2.5001904152131487e+00 1.9623655519004544e+00 -9.6107533659840749e-01
86 7.9360670679826684e-01 -3.8347281877543091e+00 -3.5070820528300457e+00
87 -8.1626957192951066e-01 1.8628716956265292e+00 5.3570435084354786e+00
88 1.2801813911956994e+00 2.0877168096920626e+00 -2.5406226004620507e+00
89 -3.5247475495410057e+00 -8.1865193123505986e-01 -8.0563964228672746e-01
90 5.3672268712501179e+00 -8.7940173439849523e-01 3.7210974983533718e+00
91 -1.4205522944286324e+00 -1.3840330884108589e+00 -1.4251672026856586e+00
92 3.2956630008040105e-01 3.3975297168170284e+00 -4.3663521597675983e+00
93 -6.8865212236756634e-01 -3.2946244989797209e+00 1.4532895464929154e+00
94 -2.5240651818251965e+00 1.2125023333939391e+00 -3.3460791512560903e+00
95 3.0223254080984696e-01 -5.6563126683429876e-01 -1.7970944639478024e+00
96 -1.3824550649874479e+00 1.9095918921723360e+00 4.9929909691050085e+00
97 9.1505143808258638e-01 3.1535153128463964e+00 9.8933493224595759e-01
98 8.7897745724181608e-01 3.1793986533455327e+00 5.9872914662006715e-01
99 -2.2741488016900733e+00 8.0210408448818926e-01 8.4423393215314257e-01
100 7.2007901871876598e-02 3.4994321301599274e-01 1.6288150680407157e-01
101 -1.8798597873927876e+00 4.9760419274621626e+00 7.2124351243930807e-01
102 -7.2860682781133845e-01 1.6247275701996484e+00 -2.1011209362061805e+00
103 5.3293942755721826e+00 -6.5067258303577624e+00 4.0181690981724316e-01
104 -6.4193891392509894e-01 -2.1861567294686264e+00 3.7299722096497239e+00
105 1.7643455661603777e+00 -3.8465032882835146e+00 -3.3755240860888143e+00
106 -4.4297699993894328e+00 -1.2604343523014943e+00 3.6892552339800638e-01
107 2.5869820213545149e+00 2.8134716650555613e-01 -3.0715013855760742e+00
108 -8.5008833000967976e-01 4.5479657933954662e+00 -2.4808333190091960e+00
109 -3.4139526100035473e+00 2.3511672433331916e+00 2.4219568593151375e+00
110 -2.5779659189728674e+00 -1.3794142205297424e+00 -1.9602173029782723e+00
111 -2.1470963089668480e+00 -1.2698129335592261e+00 -7.0635236027813342e+00
112 -1.7588863883040620e+00 1.5476690213262352e+00 -1.0234354593522794e+00
113 1.3395060746685206e+00 4.6276629604026267e+00 -2.3113755199767474e+00
114 -9.6429598278951389e-01 3.3798664988748799e+00 -1.5464662459074396e+00
115 6.3681357760468424e+00 -2.8119746533622885e+00 4.7470856041304859e-03
116 8.9185980653979213e-01 9.6235282373391040e-01 -4.5263034490470244e-01
117 1.5832690086664356e+00 -7.6391372367378599e-02 1.9787327791281378e-01
118 -3.2685827625936716e+00 -9.0400331917011723e-01 6.2087515442174468e-01
119 2.5869412813720222e-01 1.8241441858255203e+00 5.2765239518413107e+00
120 2.2565908063852240e+00 4.9963112933773374e-01 2.4326365753354589e+00
121 -8.3448406062217781e+00 -2.0550193421711440e+00 -4.7891980433888346e+00
122 1.4342973795329699e+00 2.7185866149594734e-01 -4.6443449221568498e+00
123 -4.6746474585811271e+00 9.7217770377669377e-01 -4.8268034532220655e-01
124 -2.3479609430708623e+00 6.3702306996078817e-01 3.2669707864610347e+00
125 4.0783572349130868e+00 2.0816395461211403e+00 -2.2858760253867145e+00
126 -8.0456356782239724e-02 1.2034415947285400e+00 5.9824202085273939e+00
127 -3.6101443479132050e-01 2.0882844061837083e+00 1.0284677836860254e+00
128 1.1191727172644854e+00 -3.0828695972780262e+00 2.8595586831400093e+00
