MEAM LAMMPS data file via write_data, version 3 Mar 2020, timestep = 80

144 atoms
1 atom types

7.0083218887965135e-02 1.7677916781112046e+01 xlo xhi
7.0083218887965135e-02 1.7677916781112046e+01 ylo yhi
5.0971049662263616e-02 1.2857028950337751e+01 zlo zhi
0.0000000000000000e+00 0.0000000000000000e+00 0.0000000000000000e+00 xy xz yz

Masses

1 118.71

Atoms # atomic

1 1 7.0083218887965135e-02 7.0083218887965135e-02 5.0971049662263616e-02 0 0 0
2 1 7.0083218887965135e-02 7.0083218887965135e-02 3.2524855248311346e+00 0 0 0
3 1 7.0083218887965135e-02 7.0083218887965135e-02 6.4540000000000051e+00 0 0 0
4 1 7.0083218887965135e-02 7.0083218887965135e-02 9.6555144751688946e+00 0 0 0
5 1 7.0083218887965135e-02 5.9393610729626598e+00 5.0971049662263616e-02 0 0 0
6 1 7.0083218887965135e-02 5.9393610729626598e+00 3.2524855248311346e+00 0 0 0
7 1 7.0083218887965135e-02 5.9393610729626598e+00 6.4540000000000051e+00 0 0 0
8 1 7.0083218887965135e-02 5.9393610729626598e+00 9.6555144751688946e+00 0 0 0
9 1 7.0083218887965135e-02 1.1808638927037356e+01 5.0971049662263616e-02 0 0 0
10 1 7.0083218887965135e-02 1.1808638927037356e+01 3.2524855248311346e+00 0 0 0
11 1 7.0083218887965135e-02 1.1808638927037356e+01 6.4540000000000051e+00 0 0 0
12 1 7.0083218887965135e-02 1.1808638927037356e+01 9.6555144751688946e+00 0 0 0
13 1 5.9393610729626598e+00 7.0083218887965135e-02 5.0971049662263616e-02 0 0 0
14 1 5.9393610729626598e+00 7.0083218887965135e-02 3.2524855248311346e+00 0 0 0
15 1 5.9393610729626598e+00 7.0083218887965135e-02 6.4540000000000051e+00 0 0 0
16 1 5.9393610729626598e+00 7.0083218887965135e-02 9.6555144751688946e+00 0 0 0
17 1 5.9393610729626598e+00 5.9393610729626598e+00 5.0971049662263616e-02 0 0 0
18 1 5.9393610729626598e+00 5.9393610729626598e+00 3.2524855248311346e+00 0 0 0
19 1 5.9393610729626598e+00 5.9393610729626598e+00 6.4540000000000051e+00 0 0 0
20 1 5.9393610729626598e+00 5.9393610729626598e+00 9.6555144751688946e+00 0 0 0
21 1 5.9393610729626598e+00 1.1808638927037356e+01 5.0971049662263616e-02 0 0 0
22 1 5.9393610729626598e+00 1.1808638927037356e+01 3.2524855248311346e+00 0 0 0
23 1 5.9393610729626598e+00 1.1808638927037356e+01 6.4540000000000051e+00 0 0 0
24 1 5.9393610729626598e+00 1.1808638927037356e+01 9.6555144751688946e+00 0 0 0
25 1 1.1808638927037356e+01 7.0083218887965135e-02 5.0971049662263616e-02 0 0 0
26 1 1.1808638927037356e+01 7.0083218887965135e-02 3.2524855248311346e+00 0 0 0
27 1 1.1808638927037356e+01 7.0083218887965135e-02 6.4540000000000051e+00 0 0 0
28 1 1.1808638927037356e+01 7.0083218887965135e-02 9.6555144751688946e+00 0 0 0
29 1 1.1808638927037356e+01 5.9393610729626598e+00 5.0971049662263616e-02 0 0 0
30 1 1.1808638927037356e+01 5.9393610729626598e+00 3.2524855248311346e+00 0 0 0
31 1 1.1808638927037356e+01 5.9393610729626598e+00 6.4540000000000051e+00 0 0 0
32 1 1.1808638927037356e+01 5.9393610729626598e+00 9.6555144751688946e+00 0 0 0
33 1 1.1808638927037356e+01 1.1808638927037356e+01 5.0971049662263616e-02 0 0 0
34 1 1.1808638927037356e+01 1.1808638927037356e+01 3.2524855248311346e+00 0 0 0
35 1 1.1808638927037356e+01 1.1808638927037356e+01 6.4540000000000051e+00 0 0 0
36 1 1.1808638927037356e+01 1.1808638927037356e+01 9.6555144751688946e+00 0 0 0
37 1 3.0047221459253124e+00 3.0047221459253124e+00 1.6517282872466990e+00 0 0 0
38 1 3.0047221459253124e+00 3.0047221459253124e+00 4.8532427624155714e+00 0 0 0
39 1 3.0047221459253124e+00 3.0047221459253124e+00 8.0547572375844343e+00 0 0 0
40 1 3.0047221459253124e+00 3.0047221459253124e+00 1.1256271712753312e+01 0 0 0
41 1 3.0047221459253124e+00 8.8740000000000041e+00 1.6517282872466990e+00 0 0 0
42 1 3.0047221459253124e+00 8.8740000000000041e+00 4.8532427624155714e+00 0 0 0
43 1 3.0047221459253124e+00 8.8740000000000041e+00 8.0547572375844343e+00 0 0 0
44 1 3.0047221459253124e+00 8.8740000000000041e+00 1.1256271712753312e+01 0 0 0
45 1 3.0047221459253124e+00 1.4743277854074675e+01 1.6517282872466990e+00 0 0 0
46 1 3.0047221459253124e+00 1.4743277854074675e+01 4.8532427624155714e+00 0 0 0
47 1 3.0047221459253124e+00 1.4743277854074675e+01 8.0547572375844343e+00 0 0 0
48 1 3.0047221459253124e+00 1.4743277854074675e+01 1.1256271712753312e+01 0 0 0
49 1 8.8740000000000041e+00 3.0047221459253124e+00 1.6517282872466990e+00 0 0 0
50 1 8.8740000000000041e+00 3.0047221459253124e+00 4.8532427624155714e+00 0 0 0
51 1 8.8740000000000041e+00 3.0047221459253124e+00 8.0547572375844343e+00 0 0 0
52 1 8.8740000000000041e+00 3.0047221459253124e+00 1.1256271712753312e+01 0 0 0
53 1 8.8740000000000041e+00 8.8740000000000041e+00 1.6517282872466990e+00 0 0 0
54 1 8.8740000000000041e+00 8.8740000000000041e+00 4.8532427624155714e+00 0 0 0
55 1 8.8740000000000041e+00 8.8740000000000041e+00 8.0547572375844343e+00 0 0 0
56 1 8.8740000000000041e+00 8.8740000000000041e+00 1.1256271712753312e+01 0 0 0
57 1 8.8740000000000041e+00 1.4743277854074675e+01 1.6517282872466990e+00 0 0 0
58 1 8.8740000000000041e+00 1.4743277854074675e+01 4.8532427624155714e+00 0 0 0
59 1 8.8740000000000041e+00 1.4743277854074675e+01 8.0547572375844343e+00 0 0 0
60 1 8.8740000000000041e+00 1.4743277854074675e+01 1.1256271712753312e+01 0 0 0
61 1 1.4743277854074675e+01 3.0047221459253124e+00 1.6517282872466990e+00 0 0 0
62 1 1.4743277854074675e+01 3.0047221459253124e+00 4.8532427624155714e+00 0 0 0
63 1 1.4743277854074675e+01 3.0047221459253124e+00 8.0547572375844343e+00 0 0 0
64 1 1.4743277854074675e+01 3.0047221459253124e+00 1.1256271712753312e+01 0 0 0
65 1 1.4743277854074675e+01 8.8740000000000041e+00 1.6517282872466990e+00 0 0 0
66 1 1.4743277854074675e+01 8.8740000000000041e+00 4.8532427624155714e+00 0 0 0
67 1 1.4743277854074675e+01 8.8740000000000041e+00 8.0547572375844343e+00 0 0 0
68 1 1.4743277854074675e+01 8.8740000000000041e+00 1.1256271712753312e+01 0 0 0
69 1 1.4743277854074675e+01 1.4743277854074675e+01 1.6517282872466990e+00 0 0 0
70 1 1.4743277854074675e+01 1.4743277854074675e+01 4.8532427624155714e+00 0 0 0
71 1 1.4743277854074675e+01 1.4743277854074675e+01 8.0547572375844343e+00 0 0 0
72 1 1.4743277854074675e+01 1.4743277854074675e+01 1.1256271712753312e+01 0 0 0
73 1 3.0047221459253124e+00 7.0083218887965135e-02 2.4521069060389196e+00 0 0 0
74 1 3.0047221459253124e+00 7.0083218887965135e-02 5.6536213812077838e+00 0 0 0
75 1 3.0047221459253124e+00 7.0083218887965135e-02 8.8551358563766502e+00 0 0 0
76 1 3.0047221459253124e+00 7.0083218887965135e-02 1.2056650331545535e+01 0 0 0
77 1 3.0047221459253124e+00 5.9393610729626598e+00 2.4521069060389196e+00 0 0 0
78 1 3.0047221459253124e+00 5.9393610729626598e+00 5.6536213812077838e+00 0 0 0
79 1 3.0047221459253124e+00 5.9393610729626598e+00 8.8551358563766502e+00 0 0 0
80 1 3.0047221459253124e+00 5.9393610729626598e+00 1.2056650331545535e+01 0 0 0
81 1 3.0047221459253124e+00 1.1808638927037356e+01 2.4521069060389196e+00 0 0 0
82 1 3.0047221459253124e+00 1.1808638927037356e+01 5.6536213812077838e+00 0 0 0
83 1 3.0047221459253124e+00 1.1808638927037356e+01 8.8551358563766502e+00 0 0 0
84 1 3.0047221459253124e+00 1.1808638927037356e+01 1.2056650331545535e+01 0 0 0
85 1 8.8740000000000041e+00 7.0083218887965135e-02 2.4521069060389196e+00 0 0 0
86 1 8.8740000000000041e+00 7.0083218887965135e-02 5.6536213812077838e+00 0 0 0
87 1 8.8740000000000041e+00 7.0083218887965135e-02 8.8551358563766502e+00 0 0 0
88 1 8.8740000000000041e+00 7.0083218887965135e-02 1.2056650331545535e+01 0 0 0
89 1 8.8740000000000041e+00 5.9393610729626598e+00 2.4521069060389196e+00 0 0 0
90 1 8.8740000000000041e+00 5.9393610729626598e+00 5.6536213812077838e+00 0 0 0
91 1 8.8740000000000041e+00 5.9393610729626598e+00 8.8551358563766502e+00 0 0 0
92 1 8.8740000000000041e+00 5.9393610729626598e+00 1.2056650331545535e+01 0 0 0
93 1 8.8740000000000041e+00 1.1808638927037356e+01 2.4521069060389196e+00 0 0 0
94 1 8.8740000000000041e+00 1.1808638927037356e+01 5.6536213812077838e+00 0 0 0
95 1 8.8740000000000041e+00 1.1808638927037356e+01 8.8551358563766502e+00 0 0 0
96 1 8.8740000000000041e+00 1.1808638927037356e+01 1.2056650331545535e+01 0 0 0
97 1 1.4743277854074675e+01 7.0083218887965135e-02 2.4521069060389196e+00 0 0 0
98 1 1.4743277854074675e+01 7.0083218887965135e-02 5.6536213812077838e+00 0 0 0
99 1 1.4743277854074675e+01 7.0083218887965135e-02 8.8551358563766502e+00 0 0 0
100 1 1.4743277854074675e+01 7.0083218887965135e-02 1.2056650331545535e+01 0 0 0
101 1 1.4743277854074675e+01 5.9393610729626598e+00 2.4521069060389196e+00 0 0 0
102 1 1.4743277854074675e+01 5.9393610729626598e+00 5.6536213812077838e+00 0 0 0
103 1 1.4743277854074675e+01 5.9393610729626598e+00 8.8551358563766502e+00 0 0 0
104 1 1.4743277854074675e+01 5.9393610729626598e+00 1.2056650331545535e+01 0 0 0
105 1 1.4743277854074675e+01 1.1808638927037356e+01 2.4521069060389196e+00 0 0 0
106 1 1.4743277854074675e+01 1.1808638927037356e+01 5.6536213812077838e+00 0 0 0
107 1 1.4743277854074675e+01 1.1808638927037356e+01 8.8551358563766502e+00 0 0 0
108 1 1.4743277854074675e+01 1.1808638927037356e+01 1.2056650331545535e+01 0 0 0
109 1 7.0083218887965135e-02 3.0047221459253124e+00 8.5134966845448135e-01 0 0 0
110 1 7.0083218887965135e-02 3.0047221459253124e+00 4.0528641436233448e+00 0 0 0
111 1 7.0083218887965135e-02 3.0047221459253124e+00 7.2543786187922237e+00 0 0 0
112 1 7.0083218887965135e-02 3.0047221459253124e+00 1.0455893093961091e+01 0 0 0
113 1 7.0083218887965135e-02 8.8740000000000041e+00 8.5134966845448135e-01 0 0 0
114 1 7.0083218887965135e-02 8.8740000000000041e+00 4.0528641436233448e+00 0 0 0
115 1 7.0083218887965135e-02 8.8740000000000041e+00 7.2543786187922237e+00 0 0 0
116 1 7.0083218887965135e-02 8.8740000000000041e+00 1.0455893093961091e+01 0 0 0
117 1 7.0083218887965135e-02 1.4743277854074675e+01 8.5134966845448135e-01 0 0 0
118 1 7.0083218887965135e-02 1.4743277854074675e+01 4.0528641436233448e+00 0 0 0
119 1 7.0083218887965135e-02 1.4743277854074675e+01 7.2543786187922237e+00 0 0 0
120 1 7.0083218887965135e-02 1.4743277854074675e+01 1.0455893093961091e+01 0 0 0
121 1 5.9393610729626598e+00 3.0047221459253124e+00 8.5134966845448135e-01 0 0 0
122 1 5.9393610729626598e+00 3.0047221459253124e+00 4.0528641436233448e+00 0 0 0
123 1 5.9393610729626598e+00 3.0047221459253124e+00 7.2543786187922237e+00 0 0 0
124 1 5.9393610729626598e+00 3.0047221459253124e+00 1.0455893093961091e+01 0 0 0
125 1 5.9393610729626598e+00 8.8740000000000041e+00 8.5134966845448135e-01 0 0 0
126 1 5.9393610729626598e+00 8.8740000000000041e+00 4.0528641436233448e+00 0 0 0
127 1 5.9393610729626598e+00 8.8740000000000041e+00 7.2543786187922237e+00 0 0 0
128 1 5.9393610729626598e+00 8.8740000000000041e+00 1.0455893093961091e+01 0 0 0
129 1 5.9393610729626598e+00 1.4743277854074675e+01 8.5134966845448135e-01 0 0 0
130 1 5.9393610729626598e+00 1.4743277854074675e+01 4.0528641436233448e+00 0 0 0
131 1 5.9393610729626598e+00 1.4743277854074675e+01 7.2543786187922237e+00 0 0 0
132 1 5.9393610729626598e+00 1.4743277854074675e+01 1.0455893093961091e+01 0 0 0
133 1 1.1808638927037356e+01 3.0047221459253124e+00 8.5134966845448135e-01 0 0 0
134 1 1.1808638927037356e+01 3.0047221459253124e+00 4.0528641436233448e+00 0 0 0
135 1 1.1808638927037356e+01 3.0047221459253124e+00 7.2543786187922237e+00 0 0 0
136 1 1.1808638927037356e+01 3.0047221459253124e+00 1.0455893093961091e+01 0 0 0
137 1 1.1808638927037356e+01 8.8740000000000041e+00 8.5134966845448135e-01 0 0 0
138 1 1.1808638927037356e+01 8.8740000000000041e+00 4.0528641436233448e+00 0 0 0
139 1 1.1808638927037356e+01 8.8740000000000041e+00 7.2543786187922237e+00 0 0 0
140 1 1.1808638927037356e+01 8.8740000000000041e+00 1.0455893093961091e+01 0 0 0
141 1 1.1808638927037356e+01 1.4743277854074675e+01 8.5134966845448135e-01 0 0 0
142 1 1.1808638927037356e+01 1.4743277854074675e+01 4.0528641436233448e+00 0 0 0
143 1 1.1808638927037356e+01 1.4743277854074675e+01 7.2543786187922237e+00 0 0 0
144 1 1.1808638927037356e+01 1.4743277854074675e+01 1.0455893093961091e+01 0 0 0

Velocities

1 0.0000000000000000e+00 0.0000000000000000e+00 0.0000000000000000e+00
2 0.0000000000000000e+00 0.0000000000000000e+00 0.0000000000000000e+00
3 0.0000000000000000e+00 0.0000000000000000e+00 0.0000000000000000e+00
4 0.0000000000000000e+00 0.0000000000000000e+00 0.0000000000000000e+00
5 0.0000000000000000e+00 0.0000000000000000e+00 0.0000000000000000e+00
6 0.0000000000000000e+00 0.0000000000000000e+00 0.0000000000000000e+00
7 0.0000000000000000e+00 0.0000000000000000e+00 0.0000000000000000e+00
8 0.0000000000000000e+00 0.0000000000000000e+00 0.0000000000000000e+00
9 0.0000000000000000e+00 0.0000000000000000e+00 0.0000000000000000e+00
10 0.0000000000000000e+00 0.0000000000000000e+00 0.0000000000000000e+00
11 0.0000000000000000e+00 0.0000000000000000e+00 0.0000000000000000e+00
12 0.0000000000000000e+00 0.0000000000000000e+00 0.0000000000000000e+00
13 0.0000000000000000e+00 0.0000000000000000e+00 0.0000000000000000e+00
14 0.0000000000000000e+00 0.0000000000000000e+00 0.0000000000000000e+00
15 0.0000000000000000e+00 0.0000000000000000e+00 0.0000000000000000e+00
16 0.0000000000000000e+00 0.0000000000000000e+00 0.0000000000000000e+00
17 0.0000000000000000e+00 0.0000000000000000e+00 0.0000000000000000e+00
18 0.0000000000000000e+00 0.0000000000000000e+00 0.0000000000000000e+00
19 0.0000000000000000e+00 0.0000000000000000e+00 0.0000000000000000e+00
20 0.0000000000000000e+00 0.0000000000000000e+00 0.0000000000000000e+00
21 0.0000000000000000e+00 0.0000000000000000e+00 0.0000000000000000e+00
22 0.0000000000000000e+00 0.0000000000000000e+00 0.0000000000000000e+00
23 0.0000000000000000e+00 0.0000000000000000e+00 0.0000000000000000e+00
24 0.0000000000000000e+00 0.0000000000000000e+00 0.0000000000000000e+00
25 0.0000000000000000e+00 0.0000000000000000e+00 0.0000000000000000e+00
26 0.0000000000000000e+00 0.0000000000000000e+00 0.0000000000000000e+00
27 0.0000000000000000e+00 0.0000000000000000e+00 0.0000000000000000e+00
28 0.0000000000000000e+00 0.0000000000000000e+00 0.0000000000000000e+00
29 0.0000000000000000e+00 0.0000000000000000e+00 0.0000000000000000e+00
30 0.0000000000000000e+00 0.0000000000000000e+00 0.0000000000000000e+00
31 0.0000000000000000e+00 0.0000000000000000e+00 0.0000000000000000e+00
32 0.0000000000000000e+00 0.0000000000000000e+00 0.0000000000000000e+00
33 0.0000000000000000e+00 0.0000000000000000e+00 0.0000000000000000e+00
34 0.0000000000000000e+00 0.0000000000000000e+00 0.0000000000000000e+00
35 0.0000000000000000e+00 0.0000000000000000e+00 0.0000000000000000e+00
36 0.0000000000000000e+00 0.0000000000000000e+00 0.0000000000000000e+00
37 0.0000000000000000e+00 0.0000000000000000e+00 0.0000000000000000e+00
38 0.0000000000000000e+00 0.0000000000000000e+00 0.0000000000000000e+00
39 0.0000000000000000e+00 0.0000000000000000e+00 0.0000000000000000e+00
40 0.0000000000000000e+00 0.0000000000000000e+00 0.0000000000000000e+00
41 0.0000000000000000e+00 0.0000000000000000e+00 0.0000000000000000e+00
42 0.0000000000000000e+00 0.0000000000000000e+00 0.0000000000000000e+00
43 0.0000000000000000e+00 0.0000000000000000e+00 0.0000000000000000e+00
44 0.0000000000000000e+00 0.0000000000000000e+00 0.0000000000000000e+00
45 0.0000000000000000e+00 0.0000000000000000e+00 0.0000000000000000e+00
46 0.0000000000000000e+00 0.0000000000000000e+00 0.0000000000000000e+00
47 0.0000000000000000e+00 0.0000000000000000e+00 0.0000000000000000e+00
48 0.0000000000000000e+00 0.0000000000000000e+00 0.0000000000000000e+00
49 0.0000000000000000e+00 0.0000000000000000e+00 0.0000000000000000e+00
50 0.0000000000000000e+00 0.0000000000000000e+00 0.0000000000000000e+00
51 0.0000000000000000e+00 0.0000000000000000e+00 0.0000000000000000e+00
52 0.0000000000000000e+00 0.0000000000000000e+00 0.0000000000000000e+00
53 0.0000000000000000e+00 0.0000000000000000e+00 0.0000000000000000e+00
54 0.0000000000000000e+00 0.0000000000000000e+00 0.0000000000000000e+00
55 0.0000000000000000e+00 0.0000000000000000e+00 0.0000000000000000e+00
56 0.0000000000000000e+00 0.0000000000000000e+00 0.0000000000000000e+00
57 0.0000000000000000e+00 0.0000000000000000e+00 0.0000000000000000e+00
58 0.0000000000000000e+00 0.0000000000000000e+00 0.0000000000000000e+00
59 0.0000000000000000e+00 0.0000000000000000e+00 0.0000000000000000e+00
60 0.0000000000000000e+00 0.0000000000000000e+00 0.0000000000000000e+00
61 0.0000000000000000e+00 0.0000000000000000e+00 0.0000000000000000e+00
62 0.0000000000000000e+00 0.0000000000000000e+00 0.0000000000000000e+00
63 0.0000000000000000e+00 0.0000000000000000e+00 0.0000000000000000e+00
64 0.0000000000000000e+00 0.0000000000000000e+00 0.0000000000000000e+00
65 0.0000000000000000e+00 0.0000000000000000e+00 0.0000000000000000e+00
66 0.0000000000000000e+00 0.0000000000000000e+00 0.0000000000000000e+00
67 0.0000000000000000e+00 0.0000000000000000e+00 0.0000000000000000e+00
68 0.0000000000000000e+00 0.0000000000000000e+00 0.0000000000000000e+00
69 0.0000000000000000e+00 0.0000000000000000e+00 0.0000000000000000e+00
70 0.0000000000000000e+00 0.0000000000000000e+00 0.0000000000000000e+00
71 0.0000000000000000e+00 0.0000000000000000e+00 0.0000000000000000e+00
72 0.0000000000000000e+00 0.0000000000000000e+00 0.0000000000000000e+00
73 0.0000000000000000e+00 0.0000000000000000e+00 0.0000000000000000e+00
74 0.0000000000000000e+00 0.0000000000000000e+00 0.0000000000000000e+00
75 0.0000000000000000e+00 0.0000000000000000e+00 0.0000000000000000e+00
76 0.0000000000000000e+00 0.0000000000000000e+00 0.0000000000000000e+00
77 0.0000000000000000e+00 0.0000000000000000e+00 0.0000000000000000e+00
78 0.0000000000000000e+00 0.0000000000000000e+00 0.0000000000000000e+00
79 0.0000000000000000e+00 0.0000000000000000e+00 0.0000000000000000e+00
80 0.0000000000000000e+00 0.0000000000000000e+00 0.0000000000000000e+00
81 0.0000000000000000e+00 0.0000000000000000e+00 0.0000000000000000e+00
82 0.0000000000000000e+00 0.0000000000000000e+00 0.0000000000000000e+00
83 0.0000000000000000e+00 0.0000000000000000e+00 0.0000000000000000e+00
84 0.0000000000000000e+00 0.0000000000000000e+00 0.0000000000000000e+00
85 0.0000000000000000e+00 0.0000000000000000e+00 0.0000000000000000e+00
86 0.0000000000000000e+00 0.0000000000000000e+00 0.0000000000000000e+00
87 0.0000000000000000e+00 0.0000000000000000e+00 0.0000000000000000e+00
88 0.0000000000000000e+00 0.0000000000000000e+00 0.0000000000000000e+00
89 0.0000000000000000e+00 0.0000000000000000e+00 0.0000000000000000e+00
90 0.0000000000000000e+00 0.0000000000000000e+00 0.0000000000000000e+00
91 0.0000000000000000e+00 0.0000000000000000e+00 0.0000000000000000e+00
92 0.0000000000000000e+00 0.0000000000000000e+00 0.0000000000000000e+00
93 0.0000000000000000e+00 0.0000000000000000e+00 0.0000000000000000e+00
94 0.0000000000000000e+00 0.0000000000000000e+00 0.0000000000000000e+00
95 0.0000000000000000e+00 0.0000000000000000e+00 0.0000000000000000e+00
96 0.0000000000000000e+00 0.0000000000000000e+00 0.0000000000000000e+00
97 0.0000000000000000e+00 0.0000000000000000e+00 0.0000000000000000e+00
98 0.0000000000000000e+00 0.0000000000000000e+00 0.0000000000000000e+00
99 0.0000000000000000e+00 0.0000000000000000e+00 0.0000000000000000e+00
100 0.0000000000000000e+00 0.0000000000000000e+00 0.0000000000000000e+00
101 0.0000000000000000e+00 0.0000000000000000e+00 0.0000000000000000e+00
102 0.0000000000000000e+00 0.0000000000000000e+00 0.0000000000000000e+00
103 0.0000000000000000e+00 0.0000000000000000e+00 0.0000000000000000e+00
104 0.0000000000000000e+00 0.0000000000000000e+00 0.0000000000000000e+00
105 0.0000000000000000e+00 0.0000000000000000e+00 0.0000000000000000e+00
106 0.0000000000000000e+00 0.0000000000000000e+00 0.0000000000000000e+00
107 0.0000000000000000e+00 0.0000000000000000e+00 0.0000000000000000e+00
108 0.0000000000000000e+00 0.0000000000000000e+00 0.0000000000000000e+00
109 0.0000000000000000e+00 0.0000000000000000e+00 0.0000000000000000e+00
110 0.0000000000000000e+00 0.0000000000000000e+00 0.0000000000000000e+00
111 0.0000000000000000e+00 0.0000000000000000e+00 0.0000000000000000e+00
112 0.0000000000000000e+00 0.0000000000000000e+00 0.0000000000000000e+00
113 0.0000000000000000e+00 0.0000000000000000e+00 0.0000000000000000e+00
114 0.0000000000000000e+00 0.0000000000000000e+00 0.0000000000000000e+00
115 0.0000000000000000e+00 0.0000000000000000e+00 0.0000000000000000e+00
116 0.0000000000000000e+00 0.0000000000000000e+00 0.0000000000000000e+00
117 0.0000000000000000e+00 0.0000000000000000e+00 0.0000000000000000e+00
118 0.0000000000000000e+00 0.0000000000000000e+00 0.0000000000000000e+00
119 0.0000000000000000e+00 0.0000000000000000e+00 0.0000000000000000e+00
120 0.0000000000000000e+00 0.0000000000000000e+00 0.0000000000000000e+00
121 0.0000000000000000e+00 0.0000000000000000e+00 0.0000000000000000e+00
122 0.0000000000000000e+00 0.0000000000000000e+00 0.0000000000000000e+00
123 0.0000000000000000e+00 0.0000000000000000e+00 0.0000000000000000e+00
124 0.0000000000000000e+00 0.0000000000000000e+00 0.0000000000000000e+00
125 0.0000000000000000e+00 0.0000000000000000e+00 0.0000000000000000e+00
126 0.0000000000000000e+00 0.0000000000000000e+00 0.0000000000000000e+00
127 0.0000000000000000e+00 0.0000000000000000e+00 0.0000000000000000e+00
128 0.0000000000000000e+00 0.0000000000000000e+00 0.0000000000000000e+00
129 0.0000000000000000e+00 0.0000000000000000e+00 0.0000000000000000e+00
130 0.0000000000000000e+00 0.0000000000000000e+00 0.0000000000000000e+00
131 0.0000000000000000e+00 0.0000000000000000e+00 0.0000000000000000e+00
132 0.0000000000000000e+00 0.0000000000000000e+00 0.0000000000000000e+00
133 0.0000000000000000e+00 0.0000000000000000e+00 0.0000000000000000e+00
134 0.0000000000000000e+00 0.0000000000000000e+00 0.0000000000000000e+00
135 0.0000000000000000e+00 0.0000000000000000e+00 0.0000000000000000e+00
136 0.0000000000000000e+00 0.0000000000000000e+00 0.0000000000000000e+00
137 0.0000000000000000e+00 0.0000000000000000e+00 0.0000000000000000e+00
138 0.0000000000000000e+00 0.0000000000000000e+00 0.0000000000000000e+00
139 0.0000000000000000e+00 0.0000000000000000e+00 0.0000000000000000e+00
140 0.0000000000000000e+00 0.0000000000000000e+00 0.0000000000000000e+00
141 0.0000000000000000e+00 0.0000000000000000e+00 0.0000000000000000e+00
142 0.0000000000000000e+00 0.0000000000000000e+00 0.0000000000000000e+00
143 0.0000000000000000e+00 0.0000000000000000e+00 0.0000000000000000e+00
144 0.0000000000000000e+00 0.0000000000000000e+00 0.0000000000000000e+00
